LAMMPS (23 Jun 2022 - Update 2)
  using 64 OpenMP thread(s) per MPI task
################################################################################
# GRAPHENE: TENSILE TEST
################################################################################
#
# This is a lammps input file to simulate the stretching or compression of
# graphene. The output data can be used to calculate the Young's modulus and the
# breaking stress/strain. Buckling of a graphene sheet can be studied by
# compressing the sheet.
#
# When using this script, make sure that lammps is installed with the USER-REAXC
# and the MANYBODY packages.
#
# Date: 28/03/2016
# Author: Jeroen Mulkers
# Mail: jeroen.mulkers@uantwerpen.be
#
################################################################################


# UNITS
# 'real' units are needed when using reax/c. The default time step (1fs) for
# real units is used. Some useful conversion factors are defined.
units        real
timestep     0.1
variable     fpress  equal 0.000101325  # atm -> GPa
variable     fenergy equal 0.043        # Kcal/mole -> eV

# GRAPHENE SHEET
# The atom positions and the simulation box size will be read from a data file.
# Reactive force fields (reaxFF) are used to describe the interaction between
# the carbon atoms.(The pair_style reax is deprecated. so we use the modern
# reax/c implementation)
dimension    3
boundary     p p f
atom_style   charge
read_data    silicene.dat
Reading data file ...
  orthogonal box = (0 0 -10) to (65.502 37.8176 10)
  1 by 1 by 1 MPI processor grid
  reading atoms ...
  400 atoms
  read_data CPU = 0.018 seconds
pair_style   reax/c NULL checkqeq no
pair_coeff   * * ffield.reax.CHONSSi.2 Si

# OUTPUT
# Calculate the average total, kinetic and potential energy per atom. Stress and
# strain are defined in x and y direction. When calculating the stress, we
# assume that the thickness of graphene is 3.35A.
variable     tmp     equal lx
variable     lx0     equal ${tmp}
variable     lx0     equal 65.502
variable     tmp     equal ly
variable     ly0     equal ${tmp}
variable     ly0     equal 37.8176
variable     etotal  equal etotal/atoms*${fenergy} #eV/atom
variable     etotal  equal etotal/atoms*0.043 
variable     pe      equal     pe/atoms*${fenergy} #eV/atom
variable     pe      equal     pe/atoms*0.043 
variable     ke      equal     ke/atoms*${fenergy} #eV/atom
variable     ke      equal     ke/atoms*0.043 
variable     strainx equal (lx-${lx0})/${lx0}
variable     strainx equal (lx-65.502)/${lx0}
variable     strainx equal (lx-65.502)/65.502
variable     strainy equal (ly-${ly0})/${ly0}
variable     strainy equal (ly-37.8176)/${ly0}
variable     strainy equal (ly-37.8176)/37.8176
variable     stressx equal -pxx*(lz/3.35)*${fpress} #GPa
variable     stressx equal -pxx*(lz/3.35)*0.000101325 
variable     stressy equal -pyy*(lz/3.35)*${fpress} #GPa
variable     stressy equal -pyy*(lz/3.35)*0.000101325 
thermo_style custom step time temp etotal press v_etotal v_pe v_ke              v_strainx v_stressx v_strainy v_stressy

# TEMPERATURE SETTINGS
variable     temp index 500
variable     seed index 1717
velocity     all create ${temp} ${seed} dist uniform
velocity     all create 500 ${seed} dist uniform
velocity     all create 500 1717 dist uniform

# EQUILIBRATION
# Relaxation of the system will be done in a NPT ensemble. The size of the
# simulation box can change in x and y direction to resolve stresses. The number
# of time steps should be large enough to relax the system in your final
# simulation but can be small for debugging purposes.
fix          fnpt all npt temp ${temp} ${temp} 10 x 0 0 500 y 0 0 500
fix          fnpt all npt temp 500 ${temp} 10 x 0 0 500 y 0 0 500
fix          fnpt all npt temp 500 500 10 x 0 0 500 y 0 0 500
thermo       1
run          1000

CITE-CITE-CITE-CITE-CITE-CITE-CITE-CITE-CITE-CITE-CITE-CITE-CITE

Your simulation uses code contributions which should be cited:

- pair reaxff command:

@Article{Aktulga12,
 author = {H. M. Aktulga, J. C. Fogarty, S. A. Pandit, A. Y. Grama},
 title = {Parallel reactive molecular dynamics: Numerical methods and algorithmic techniques},
 journal = {Parallel Computing},
 year =    2012,
 volume =  38,
 pages =   {245--259}
}

CITE-CITE-CITE-CITE-CITE-CITE-CITE-CITE-CITE-CITE-CITE-CITE-CITE

Neighbor list info ...
  update every 1 steps, delay 10 steps, check yes
  max neighbors/atom: 2000, page size: 100000
  master list distance cutoff = 12
  ghost atom cutoff = 12
  binsize = 6, bins = 11 7 4
  1 neighbor lists, perpetual/occasional/extra = 1 0 0
  (1) pair reax/c, perpetual
      attributes: half, newton off, ghost
      pair build: half/bin/newtoff/ghost
      stencil: full/ghost/bin/3d
      bin: standard
Per MPI rank memory allocation (min/avg/max) = 70.99 | 70.99 | 70.99 Mbytes
   Step          Time           Temp          TotEng         Press         v_etotal         v_pe           v_ke        v_strainx      v_stressx      v_strainy      v_stressy   
         0   0              500           -32324.204     -12789.914     -3.474852      -3.5387792      0.063927198    0              11.230916      0              11.230989    
         1   0.1            499.94248     -32324.222     -12784.835     -3.4748539     -3.5387738      0.063919843   -6.7329854e-07  11.219768     -6.7330295e-07  11.232847    
         2   0.2            499.94596     -32324.277     -12782.754     -3.4748597     -3.53878        0.063920288   -2.691853e-06   11.211122     -2.6934302e-06  11.237181    
         3   0.3            500.01053     -32324.367     -12783.671     -3.4748694     -3.538798       0.063928544   -6.0546133e-06  11.204975     -6.060888e-06   11.243995    
         4   0.4            500.13631     -32324.493     -12787.589     -3.474883      -3.5388276      0.063944625   -1.076082e-05   11.201325     -1.0776471e-05  11.253292    
         5   0.5            500.32349     -32324.656     -12794.506     -3.4749005     -3.538869       0.063968557   -1.6810005e-05  11.200168     -1.6841264e-05  11.265075    
         6   0.6            500.5723      -32324.854     -12804.421     -3.4749218     -3.5389222      0.064000368   -2.420199e-05   11.201501     -2.4256637e-05  11.279347    
         7   0.7            500.88302     -32325.09      -12817.334     -3.4749471     -3.5389872      0.064040096   -3.2936884e-05  11.205317     -3.3024255e-05  11.29611     
         8   0.8            501.25599     -32325.362     -12833.241     -3.4749764     -3.5390641      0.064087782   -4.3015088e-05  11.211613     -4.3146066e-05  11.315364    
         9   0.9            501.69161     -32325.67      -12852.14      -3.4750096     -3.5391531      0.064143477   -5.4437289e-05  11.220381     -5.4624313e-05  11.33711     
        10   1              502.19031     -32326.017     -12874.027     -3.4750468     -3.539254       0.064207238   -6.7204461e-05  11.231614     -6.7461524e-05  11.361349    
        11   1.1            502.75259     -32326.401     -12898.896     -3.4750881     -3.5393672      0.064279128   -8.1317865e-05  11.245305     -8.1660518e-05  11.388078    
        12   1.2            503.379       -32326.823     -12926.741     -3.4751334     -3.5394926      0.064359217   -9.6779045e-05  11.261444     -9.7224401e-05  11.417296    
        13   1.3            504.07014     -32327.283     -12957.556     -3.4751829     -3.5396305      0.064447583   -0.00011358983  11.280023     -0.00011415657  11.449001    
        14   1.4            504.82668     -32327.783     -12991.33      -3.4752366     -3.539781       0.064544309   -0.00013175233  11.301029     -0.0001324607   11.483187    
        15   1.5            505.64932     -32328.322     -13028.055     -3.4752946     -3.5399441      0.064649488   -0.00015126894  11.324451     -0.00015214077  11.519851    
        16   1.6            506.53884     -32328.901     -13067.718     -3.4753569     -3.5401201      0.064763217   -0.00017214233  11.350275     -0.00017320102  11.558985    
        17   1.7            507.49606     -32329.522     -13110.306     -3.4754236     -3.5403092      0.064885602   -0.00019437544  11.378486     -0.00019564601  11.600582    
        18   1.8            508.52186     -32330.183     -13155.804     -3.4754947     -3.5405115      0.065016754   -0.00021797149  11.409068     -0.00021948053  11.644632    
        19   1.9            509.61716     -32330.888     -13204.195     -3.4755704     -3.5407272      0.065156794   -0.00024293398  11.442001     -0.00024470971  11.691125    
        20   2              510.78297     -32331.635     -13255.458     -3.4756508     -3.5409566      0.065305848   -0.00026926667  11.477265     -0.00027133892  11.740047    
        21   2.1            512.02033     -32332.426     -13309.571     -3.4757358     -3.5411999      0.065464049   -0.00029697359  11.514838     -0.00029937382  11.791383    
        22   2.2            513.33033     -32333.263     -13366.51      -3.4758257     -3.5414573      0.065631538   -0.00032605902  11.554695     -0.00032882035  11.845116    
        23   2.3            514.71412     -32334.145     -13426.246     -3.4759206     -3.541729       0.065808463   -0.00035652752  11.596808     -0.0003596847   11.901226    
        24   2.4            516.17293     -32335.074     -13488.748     -3.4760204     -3.5420154      0.065994978   -0.00038838389  11.641146     -0.00039197336  11.959689    
        25   2.5            517.70801     -32336.051     -13553.98      -3.4761255     -3.5423167      0.066191244   -0.0004216332   11.687677     -0.00042569307  12.020481    
        26   2.6            519.32067     -32337.077     -13621.903     -3.4762358     -3.5426332      0.06639743    -0.00045628075  11.736363     -0.00046085083  12.083571    
        27   2.7            521.01227     -32338.154     -13692.475     -3.4763515     -3.5429652      0.066613709   -0.00049233208  11.787163     -0.0004974539   12.148928    
        28   2.8            522.78424     -32339.282     -13765.646     -3.4764728     -3.5433131      0.066840263   -0.00052979297  11.840034     -0.0005355098   12.216514    
        29   2.9            524.63803     -32340.463     -13841.364     -3.4765998     -3.5436771      0.067077278   -0.00056866945  11.894926     -0.00057502629  12.286288    
        30   3              526.57516     -32341.698     -13919.569     -3.4767326     -3.5440575      0.067324948   -0.00060896773  11.951787     -0.00061601137  12.358205    
        31   3.1            528.59716     -32342.989     -14000.197     -3.4768713     -3.5444548      0.06758347    -0.00065069429  12.010558     -0.00065847329  12.432213    
        32   3.2            530.70564     -32344.337     -14083.177     -3.4770163     -3.5448693      0.067853048   -0.00069385577  12.071175     -0.0007024205   12.508258    
        33   3.3            532.90221     -32345.744     -14168.431     -3.4771675     -3.5453014      0.06813389    -0.00073845903  12.133569     -0.00074786171  12.586276    
        34   3.4            535.18855     -32347.211     -14255.872     -3.4773252     -3.5457514      0.068426208   -0.00078451113  12.197666     -0.00079480581  12.6662      
        35   3.5            537.56633     -32348.74      -14345.409     -3.4774895     -3.5462198      0.068730218   -0.0008320193   12.263382     -0.0008432619   12.747954    
        36   3.6            540.03727     -32350.333     -14436.938     -3.4776608     -3.5467069      0.069046139   -0.00088099094  12.330629     -0.0008932393   12.831456    
        37   3.7            542.60309     -32351.991     -14530.35      -3.477839      -3.5472132      0.06937419    -0.00093143361  12.39931      -0.00094474747  12.916617    
        38   3.8            545.26554     -32353.716     -14625.523     -3.4780244     -3.547739       0.069714596   -0.000983355    12.469322     -0.00099779607  13.003338    
        39   3.9            548.02634     -32355.51      -14722.328     -3.4782173     -3.5482849      0.070067577   -0.001036763    12.540552     -0.0010523949   13.091513    
        40   4              550.88724     -32357.376     -14820.622     -3.4784179     -3.5488512      0.070433355   -0.0010916655   12.612879     -0.0011085539   13.181025    
        41   4.1            553.84996     -32359.314     -14920.254     -3.4786263     -3.5494384      0.070812151   -0.0011480705   12.686172     -0.0011662832   13.271749    
        42   4.2            556.91618     -32361.328     -15021.059     -3.4788427     -3.5500469      0.071204182   -0.0012059863   12.760292     -0.001225593    13.36355     
        43   4.3            560.08757     -32363.419     -15122.861     -3.4790675     -3.5506772      0.071609658   -0.001265421    12.835087     -0.0012864935   13.45628     
        44   4.4            563.36574     -32365.589     -15225.47      -3.4793008     -3.5513296      0.072028786   -0.0013263829   12.910399     -0.0013489951   13.549783    
        45   4.5            566.75223     -32367.841     -15328.683     -3.4795429     -3.5520047      0.072461763   -0.0013888802   12.986054     -0.0014131083   13.643888    
        46   4.6            570.24851     -32370.177     -15432.283     -3.4797941     -3.5527028      0.072908778   -0.0014529213   13.06187      -0.0014788434   13.738414    
        47   4.7            573.85596     -32372.6       -15536.039     -3.4800545     -3.5534245      0.073370006   -0.0015185144   13.137654     -0.0015462109   13.833168    
        48   4.8            577.57584     -32375.111     -15639.705     -3.4803244     -3.55417        0.07384561    -0.0015856678   13.213198     -0.0016152213   13.927943    
        49   4.9            581.40931     -32377.712     -15743.021     -3.4806041     -3.5549398      0.074335736   -0.0016543895   13.288285     -0.001685885    14.02252     
        50   5              585.35735     -32380.408     -15845.711     -3.4808938     -3.5557343      0.07484051    -0.0017246877   13.362685     -0.0017582123   14.116665    
        51   5.1            589.42079     -32383.199     -15947.484     -3.4811939     -3.5565539      0.075360038   -0.0017965704   13.436156     -0.0018322135   14.210132    
        52   5.2            593.60027     -32386.089     -16048.035     -3.4815045     -3.5573989      0.075894403   -0.0018700451   13.508442     -0.0019078986   14.302662    
        53   5.3            597.8962      -32389.079     -16147.046     -3.481826      -3.5582697      0.076443657   -0.0019451197   13.579283     -0.0019852776   14.393987    
        54   5.4            602.30879     -32392.173     -16244.176     -3.4821586     -3.5591664      0.077007826   -0.0020218014   13.648392     -0.0020643603   14.483813    
        55   5.5            606.83797     -32395.373     -16339.074     -3.4825026     -3.5600895      0.077586902   -0.0021000973   13.715481     -0.0021451562   14.571843    
        56   5.6            611.48339     -32398.681     -16431.376     -3.4828583     -3.5610391      0.078180839   -0.0021800143   13.780249     -0.0022276744   14.657765    
        57   5.7            616.2444      -32402.101     -16520.705     -3.4832258     -3.5620154      0.078789555   -0.0022615589   13.842384     -0.002311924    14.741256    
        58   5.8            621.12001     -32405.634     -16606.67      -3.4836056     -3.5630185      0.079412923   -0.0023447373   13.901566     -0.0023979135   14.821981    
        59   5.9            626.10888     -32409.282     -16688.863     -3.4839978     -3.5640486      0.080050772   -0.002429555    13.957457     -0.0024856512   14.899589    
        60   6              631.20929     -32413.049     -16766.87      -3.4844028     -3.5651057      0.080702882   -0.0025160174   14.009717     -0.0025751448   14.973724    
        61   6.1            636.41913     -32416.937     -16840.271     -3.4848207     -3.5661897      0.081368982   -0.0026041294   14.058001     -0.0026664015   15.044021    
        62   6.2            641.73583     -32420.947     -16908.635     -3.4852518     -3.5673006      0.082048747   -0.002693895    14.101958     -0.0027594283   15.11011     
        63   6.3            647.15643     -32425.082     -16971.514     -3.4856964     -3.5684381      0.082741794   -0.002785318    14.141218     -0.0028542311   15.171603    
        64   6.4            652.67746     -32429.345     -17028.461     -3.4861545     -3.5696022      0.083447682   -0.0028784015   14.175416     -0.0029508157   15.22811     
        65   6.5            658.29502     -32433.736     -17079.023     -3.4866266     -3.5707925      0.084165911   -0.0029731478   14.204183     -0.0030491869   15.279238    
        66   6.6            664.00467     -32438.257     -17122.744     -3.4871127     -3.5720086      0.084895915   -0.0030695585   14.227145     -0.003149349    15.32459     
        67   6.7            669.80151     -32442.911     -17159.165     -3.4876129     -3.57325        0.085637067   -0.0031676347   14.243929     -0.0032513053   15.363762    
        68   6.8            675.68012     -32447.698     -17187.824     -3.4881275     -3.5745162      0.086388673   -0.0032673764   14.254157     -0.0033550585   15.39635     
        69   6.9            681.63457     -32452.619     -17208.256     -3.4886565     -3.5758065      0.087149975   -0.0033687828   14.257453     -0.0034606104   15.421944    
        70   7              687.65841     -32457.674     -17219.995     -3.4892        -3.5771202      0.08792015    -0.0034718524   14.253439     -0.0035679618   15.440133    
        71   7.1            693.74469     -32462.866     -17222.573     -3.4897581     -3.5784564      0.088698307   -0.0035765825   14.241737     -0.0036771127   15.450499    
        72   7.2            699.88595     -32468.192     -17215.522     -3.4903306     -3.5798141      0.089483495   -0.0036829696   14.221969     -0.0037880619   15.452626    
        73   7.3            706.07424     -32473.653     -17198.369     -3.4909177     -3.5811924      0.090274694   -0.0037910091   14.193756     -0.0039008072   15.446087    
        74   7.4            712.3011      -32479.248     -17170.623     -3.4915192     -3.58259        0.091070826   -0.0039006954   14.156706     -0.0040153453   15.43044     
        75   7.5            718.55761     -32484.976     -17131.787     -3.4921349     -3.5840056      0.091870749   -0.0040120215   14.110423     -0.0041316719   15.405232    
        76   7.6            724.83439     -32490.833     -17081.349     -3.4927646     -3.5854378      0.092673262   -0.0041249797   14.054505     -0.0042497813   15.369994    
        77   7.7            731.12156     -32496.818     -17018.778     -3.493408      -3.5868851      0.093477104   -0.0042395606   13.988534     -0.0043696665   15.324237    
        78   7.8            737.40881     -32502.928     -16943.515     -3.4940647     -3.5883457      0.094280957   -0.0043557539   13.912075     -0.0044913192   15.267441    
        79   7.9            743.68535     -32509.157     -16854.969     -3.4947344     -3.5898178      0.095083441   -0.0044735478   13.824672     -0.0046147298   15.199054    
        80   8              749.93994     -32515.501     -16752.504     -3.4954164     -3.5912995      0.095883117   -0.0045929291   13.725835     -0.0047398872   15.118478    
        81   8.1            756.16082     -32521.955     -16635.425     -3.4961101     -3.5927886      0.096678484   -0.0047138833   13.615034     -0.0048667787   15.025059    
        82   8.2            762.33574     -32528.511     -16502.981     -3.4968149     -3.5942829      0.097467975   -0.0048363944   13.491696     -0.0049953901   14.918084    
        83   8.3            768.45188     -32535.161     -16354.353     -3.4975298     -3.5957798      0.09824995    -0.0049604447   13.355203     -0.0051257054   14.79678     
        84   8.4            774.49582     -32541.898     -16188.615     -3.498254      -3.5972767      0.099022694   -0.005086015    13.204852     -0.005257707    14.660269    
        85   8.5            780.45348     -32548.71      -16004.748     -3.4989863     -3.5987707      0.099784407   -0.0052130844   13.039873     -0.0053913752   14.507589    
        86   8.6            786.31004     -32555.588     -15801.635     -3.4997257     -3.6002589      0.10053319    -0.0053416301   12.859418     -0.0055266885   14.337687    
        87   8.7            792.04988     -32562.519     -15578.031     -3.5004708     -3.6017379      0.10126706    -0.0054716276   12.66254      -0.0056636232   14.149397    
        88   8.8            797.65649     -32569.491     -15332.569     -3.5012202     -3.6032041      0.10198389    -0.0056030502   12.448192     -0.0058021535   13.941446    
        89   8.9            803.1124      -32576.488     -15063.753     -3.5019725     -3.604654       0.10268145    -0.0057358691   12.215219     -0.0059422509   13.712457    
        90   9              808.39913     -32583.497     -14769.965     -3.502726      -3.6060833      0.10335738    -0.0058700534   11.962359     -0.0060838847   13.46095     
        91   9.1            813.49714     -32590.501     -14449.46      -3.5034789     -3.6074881      0.10400919    -0.0060055697   11.688235     -0.0062270212   13.185352    
        92   9.2            818.38584     -32597.483     -14100.368     -3.5042295     -3.6088637      0.10463423    -0.0061423821   11.391347     -0.0063716241   12.884003    
        93   9.3            823.04358     -32604.426     -13720.719     -3.5049757     -3.6102055      0.10522974    -0.0062804519   11.070091     -0.0065176538   12.555186    
        94   9.4            827.44795     -32611.309     -13308.876     -3.5057157     -3.6115086      0.10579286    -0.0064197375   10.722998     -0.0066650676   12.197598    
        95   9.5            831.57592     -32618.115     -12862.835     -3.5064473     -3.612768       0.10632064    -0.0065601944   10.348355     -0.0068138192   11.809585    
        96   9.6            835.40374     -32624.823     -12380.404     -3.5071684     -3.6139785      0.10681004    -0.0067017747   9.9442689     -0.0069638587   11.389356    
        97   9.7            838.90687     -32631.413     -11859.19      -3.5078769     -3.6151348      0.10725793    -0.0068444271   9.5086497     -0.0071151327   10.934982    
        98   9.8            842.06023     -32637.864     -11296.919     -3.5085704     -3.6162315      0.1076611     -0.0069880965   9.0394367     -0.0072675835   10.444714    
        99   9.9            844.83839     -32644.155     -10691.273     -3.5092467     -3.617263       0.1080163     -0.0071327239   8.5344899     -0.0074211493   9.9168062    
       100   10             847.2158      -32650.265     -10040.074     -3.5099034     -3.6182237      0.10832026    -0.0072782463   7.9917365     -0.0075757638   9.3496948    
       101   10.1           849.16696     -32656.171     -9341.0078     -3.5105384     -3.6191082      0.10856973    -0.0074245961   7.4089736     -0.0077313563   8.7417205    
       102   10.2           850.66648     -32661.853     -8591.5724     -3.5111492     -3.6199107      0.10876145    -0.0075717011   6.7838397     -0.0078878513   8.0910661    
       103   10.3           851.68941     -32667.289     -7789.7359     -3.5117336     -3.6206258      0.10889223    -0.0077194842   6.1143024     -0.0080451684   7.396381     
       104   10.4           852.21172     -32672.456     -6933.6369     -3.512289      -3.621248       0.10895901    -0.0078678634   5.3984516     -0.008203222    6.6564747    
       105   10.5           852.21065     -32677.333     -6021.2872     -3.5128133     -3.6217722      0.10895888    -0.0080167511   4.6343098     -0.0083619215   5.8700054    
       106   10.6           851.66497     -32681.899     -5050.8656     -3.5133042     -3.6221933      0.10888911    -0.0081660543   3.8201577     -0.0085211708   5.0356724    
       107   10.7           850.55579     -32686.132     -4021.4196     -3.5137592     -3.6225065      0.1087473     -0.0083156742   2.9550159     -0.0086808686   4.1528822    
       108   10.8           848.86733     -32690.012     -2932.1404     -3.5141762     -3.6227077      0.10853142    -0.0084655063   2.03834       -0.0088409077   3.2208393    
       109   10.9           846.58702     -32693.517     -1781.4952     -3.5145531     -3.622793       0.10823987    -0.0086154403   1.0686296     -0.0090011758   2.2385158    
       110   11             843.70669     -32696.629     -570.63487     -3.5148876     -3.6227592      0.10787161    -0.0087653599   0.047157791   -0.0091615545   1.2065624    
       111   11.1           840.22363     -32699.329      699.91618     -3.5151779     -3.6226042      0.10742628    -0.0089151427  -1.0257898     -0.0093219203   0.12559654   
       112   11.2           836.14057     -32701.6        2029.3292     -3.515422      -3.6223262      0.10690425    -0.0090646611  -2.1494962     -0.0094821438  -1.0036652    
       113   11.3           831.46619     -32703.426      3416.086      -3.5156183     -3.6219249      0.10630661    -0.0092137813  -3.3222988     -0.0096420905  -2.1802919    
       114   11.4           826.21599     -32704.794      4857.5927     -3.5157653     -3.6214007      0.10563535    -0.0093623645  -4.5419547     -0.0098016207  -3.4021361    
       115   11.5           820.41278     -32705.691      6350.1684     -3.5158618     -3.6207552      0.10489338    -0.0095102665  -5.8048862     -0.0099605897  -4.6665618    
       116   11.6           814.08744     -32706.109      7888.9246     -3.5159067     -3.6199914      0.10408466    -0.0096573385  -7.1063384     -0.010118848   -5.9700938    
       117   11.7           807.27854     -32706.042      9470.0231     -3.5158996     -3.6191137      0.10321411    -0.0098034277  -8.4431116     -0.010276243   -7.3094158    
       118   11.8           800.032       -32705.488      11088.201     -3.5158399     -3.6181275      0.10228761    -0.0099483774  -9.8103747     -0.010432616   -8.6804543    
       119   11.9           792.40138     -32704.445      12737.065     -3.5157279     -3.6170399      0.101312      -0.010092028   -11.202711     -0.010587807   -10.077838    
       120   12             784.44726     -32702.919      14410.848     -3.5155638     -3.6158589      0.10029503    -0.010234217   -12.615088     -0.010741654   -11.49684     
       121   12.1           776.23696     -32700.918      16101.792     -3.5153487     -3.614594       0.099245307   -0.01037478    -14.040871     -0.01089399    -12.930983    
       122   12.2           767.84404     -32698.454      17802.594     -3.5150838     -3.613256       0.098172236   -0.010513552   -15.473657     -0.01104465    -14.374331    
       123   12.3           759.34711     -32695.543      19506.203     -3.5147709     -3.6118567      0.097085866   -0.010650368   -16.90752      -0.011193467   -15.820861    
       124   12.4           750.82898     -32692.204      21204.498     -3.514412      -3.6104088      0.095996785   -0.010785062   -18.335332     -0.011340273   -17.263982    
       125   12.5           742.37578     -32688.463      22889.574     -3.5140098     -3.6089258      0.094916006   -0.01091747    -19.750489     -0.011484902   -18.696946    
       126   12.6           734.0757      -32684.347      24553.371     -3.5135673     -3.6074221      0.093854804   -0.011047431   -21.146228     -0.01162719    -20.11292     
       127   12.7           726.01763     -32679.886      26188.435     -3.5130878     -3.6059123      0.092824545   -0.011174784   -22.516212     -0.011766974   -21.505651    
       128   12.8           718.28941     -32675.117      27788.282     -3.5125751     -3.6044115      0.091836458   -0.011299373   -23.854509     -0.011904097   -22.870067    
       129   12.9           710.97637     -32670.075      29345.608     -3.5120331     -3.6029345      0.090901454   -0.011421047   -25.15457      -0.012038403   -24.200369    
       130   13             704.16054     -32664.801      30854.124     -3.5114661     -3.6014961      0.09003002    -0.011539659   -26.410137     -0.012169742   -25.492213    
       131   13.1           697.91914     -32659.336      32308.302     -3.5108786     -3.6001107      0.08923203    -0.011655067   -27.616164     -0.012297967   -26.741305    
       132   13.2           692.32302     -32653.724      33703.171     -3.5102753     -3.5987918      0.088516541   -0.011767136   -28.767955     -0.012422938   -27.943955    
       133   13.3           687.43575     -32648.007      35033.589     -3.5096608     -3.5975525      0.087891682   -0.011875738   -29.860702     -0.012544521   -29.09634     
       134   13.4           683.31275     -32642.232      36294.868     -3.5090399     -3.5964045      0.087364538   -0.01198075    -30.889881     -0.012662588   -30.195117    
       135   13.5           680.00015     -32636.443      37483.588     -3.5084176     -3.5953586      0.086941007   -0.012082059   -31.852102     -0.012777015   -31.237924    
       136   13.6           677.53464     -32630.684      38595.107     -3.5077986     -3.5944243      0.086625782   -0.01217956    -32.742954     -0.012887689   -32.221441    
       137   13.7           675.94264     -32625.001      39627.041     -3.5071876     -3.5936098      0.086422238   -0.012273154   -33.559994     -0.012994501   -33.144086    
       138   13.8           675.23986     -32619.434      40576.649     -3.5065892     -3.5929216      0.086332384   -0.012362755   -34.300741     -0.013097351   -34.003764    
       139   13.9           675.43205     -32614.028      41440.193     -3.506008      -3.5923649      0.086356956   -0.012448281   -34.962243     -0.013196146   -34.797223    
       140   14             676.51456     -32608.821      42215.711     -3.5054482     -3.5919436      0.08649536    -0.012529663   -35.54302      -0.0132908     -35.522666    
       141   14.1           678.47288     -32603.851      42902.33      -3.5049139     -3.5916597      0.086745739   -0.012606841   -36.042425     -0.013381236   -36.179296    
       142   14.2           681.28316     -32599.154      43499.377     -3.504409      -3.5915141      0.087105046   -0.012679763   -36.460286     -0.013467386   -36.766191    
       143   14.3           684.91239     -32594.762      44005.917     -3.503937      -3.591506       0.08756906    -0.012748388   -36.796426     -0.013549188   -37.282002    
       144   14.4           689.31898     -32590.707      44421.503     -3.503501      -3.5916335      0.088132461   -0.012812683   -37.051385     -0.013626589   -37.725461    
       145   14.5           694.45368     -32587.015      44746.859     -3.5031041     -3.591893       0.088788955   -0.012872625   -37.226681     -0.013699545   -38.096302    
       146   14.6           700.26099     -32583.709      44983.716     -3.5027487     -3.5922802      0.089531445   -0.012928202   -37.324725     -0.013768022   -38.395045    
       147   14.7           706.68007     -32580.811      45133.324     -3.5024372     -3.5927894      0.090352152   -0.012979407   -37.34782      -0.01383199    -38.62152     
       148   14.8           713.64583     -32578.339      45198.59      -3.5021714     -3.5934142      0.091242756   -0.013026246   -37.299525     -0.013891431   -38.777056    
       149   14.9           721.09001     -32576.305      45182.318     -3.5019528     -3.5941473      0.092194527   -0.013068731   -37.183453     -0.013946334   -38.862772    
       150   15             728.94182     -32574.721      45087.463     -3.5017825     -3.594981       0.093198415   -0.01310688    -37.003315     -0.013996696   -38.879949    
       151   15.1           737.12912     -32573.595      44916.828     -3.5016615     -3.5959067      0.094245198   -0.013140721   -36.76288      -0.014042521   -38.829567    
       152   15.2           745.58042     -32572.932      44674.043     -3.5015901     -3.5969159      0.095325734   -0.013170288   -36.466362     -0.014083822   -38.713538    
       153   15.3           754.2253      -32572.732      44362.14      -3.5015687     -3.5979997      0.096431019   -0.013195621   -36.117509     -0.01412062    -38.533313    
       154   15.4           762.99497     -32572.996      43985.141     -3.5015971     -3.5991493      0.09755226    -0.013216766   -35.720907     -0.01415294    -38.291096    
       155   15.5           771.82433     -32573.719      43547.091     -3.5016748     -3.6003559      0.098681133   -0.013233774   -35.280735     -0.014180818   -37.98953     
       156   15.6           780.65235     -32574.896      43050.748     -3.5018013     -3.6016112      0.099809834   -0.013246702   -34.799906     -0.014204294   -37.630424    
       157   15.7           789.42206     -32576.519      42499.863     -3.5019757     -3.6029068      0.10093108    -0.013255611   -34.282205     -0.014223415   -37.216372    
       158   15.8           798.08096     -32578.576      41896.821     -3.5021969     -3.6042351      0.10203816    -0.013260565   -33.73026      -0.014238236   -36.748917    
       159   15.9           806.58083     -32581.057      41243.95      -3.5024636     -3.6055885      0.1031249     -0.013261634   -33.146062     -0.014248814   -36.230055    
       160   16             814.87819     -32583.946      40544.935     -3.5027742     -3.60696        0.10418576    -0.013258888   -32.532853     -0.014255216   -35.662815    
       161   16.1           822.93505     -32587.229      39803.752     -3.5031272     -3.608343       0.10521586    -0.013252404   -31.893932     -0.014257513   -35.050617    
       162   16.2           830.71803     -32590.889      39023.214     -3.5035206     -3.6097315      0.10621095    -0.01324226    -31.231484     -0.014255779   -34.396076    
       163   16.3           838.19772     -32594.907      38206.788     -3.5039525     -3.6111198      0.10716726    -0.013228536   -30.54787      -0.014250094   -33.702718    
       164   16.4           845.34869     -32599.264      37357.586     -3.5044209     -3.6125024      0.10808155    -0.013211315   -29.845325     -0.014240545   -32.973609    
       165   16.5           852.14914     -32603.94       36478.372     -3.5049235     -3.6138746      0.10895101    -0.013190682   -29.125693     -0.014227218   -32.211603    
       166   16.6           858.5807      -32608.914      35573.083     -3.5054582     -3.6152315      0.10977332    -0.013166725   -28.391625     -0.014210206   -31.42063     
       167   16.7           864.62843     -32614.164      34645.436     -3.5060226     -3.6165692      0.11054654    -0.01313953    -27.645706     -0.014189604   -30.604364    
       168   16.8           870.28078     -32619.669      33698.052     -3.5066144     -3.6178836      0.11126922    -0.013109189   -26.8895       -0.01416551    -29.765704    
       169   16.9           875.52898     -32625.406      32734.916     -3.5072312     -3.6191714      0.11194023    -0.013075791   -26.125856     -0.014138025   -28.908446    
       170   17             880.36656     -32631.355      31759.661     -3.5078706     -3.6204294      0.11255873    -0.013039427   -25.356829     -0.014107251   -28.036613    
       171   17.1           884.78984     -32637.492      30776.427     -3.5085304     -3.6216546      0.11312427    -0.01300019    -24.58553      -0.014073292   -27.153964    
       172   17.2           888.79777     -32643.796      29788.844     -3.5092081     -3.6228448      0.1136367     -0.012958171   -23.814539     -0.014036252   -26.263989    
       173   17.3           892.39146     -32650.247      28800.507     -3.5099016     -3.6239977      0.11409617    -0.012913463   -23.046206     -0.013996237   -25.370329    
       174   17.4           895.57348     -32656.824      27813.221     -3.5106086     -3.6251116      0.11450301    -0.012866155   -22.281434     -0.013953355   -24.475101    
       175   17.5           898.3468      -32663.508      26829.332     -3.5113271     -3.6261847      0.11485759    -0.01281634    -21.521902     -0.013907709   -23.58052     
       176   17.6           900.7146      -32670.279      25851.258     -3.512055      -3.6272153      0.11516032    -0.012764107   -20.76923      -0.013859407   -22.688987    
       177   17.7           902.68065     -32677.119      24882.204     -3.5127903     -3.628202       0.11541169    -0.012709545   -20.025424     -0.013808553   -21.803811    
       178   17.8           904.24859     -32684.011      23923.071     -3.5135312     -3.6291434      0.11561216    -0.012652743   -19.290906     -0.013755253   -20.926091    
       179   17.9           905.4212      -32690.939      22975.505     -3.514276      -3.6300381      0.11576208    -0.012593788   -18.566568     -0.01369961    -20.057675    
       180   18             906.20087     -32697.887      22041.748     -3.5150229     -3.6308847      0.11586176    -0.012532765   -17.853758     -0.013641726   -19.200952    
       181   18.1           906.58949     -32704.841      21122.718     -3.5157704     -3.6316819      0.11591145    -0.012469759   -17.152957     -0.013581702   -18.357004    
       182   18.2           906.58806     -32711.787      20219.503     -3.5165171     -3.6324284      0.11591127    -0.012404853   -16.464685     -0.013519638   -17.52712     
       183   18.3           906.19684     -32718.712      19331.952     -3.5172615     -3.6331228      0.11586125    -0.012338127   -15.788388     -0.013455631   -16.711644    
       184   18.4           905.41541     -32725.604      18460.787     -3.5180025     -3.6337638      0.11576134    -0.012269663   -15.124636     -0.013389778   -15.911234    
       185   18.5           904.24313     -32732.453      17607.079     -3.5187387     -3.6343502      0.11561146    -0.012199538   -14.474238     -0.013322172   -15.126865    
       186   18.6           902.68001     -32739.248      16772.811     -3.5194691     -3.6348807      0.11541161    -0.012127829   -13.838346     -0.013252907   -14.360688    
       187   18.7           900.72705     -32745.979      15958.454     -3.5201928     -3.6353547      0.11516191    -0.012054611   -13.217277     -0.013182071   -13.613182    
       188   18.8           898.3865      -32752.64       15164.201     -3.5209088     -3.6357714      0.11486266    -0.011979958   -12.611193     -0.013109754   -12.884574    
       189   18.9           895.66249     -32759.221      14391.07      -3.5216162     -3.6361306      0.11451439    -0.011903942   -12.02077      -0.01303604    -12.175847    
       190   19             892.56132     -32765.716      13640.457     -3.5223145     -3.6364324      0.11411789    -0.011826631   -11.44709      -0.012961014   -11.488259    
       191   19.1           889.09147     -32772.12       12913.018     -3.5230029     -3.6366772      0.11367425    -0.011748095   -10.890821     -0.012884756   -10.822257    
       192   19.2           885.2637      -32778.427      12208.549     -3.5236809     -3.6368658      0.11318485    -0.011668398   -10.351865     -0.012807344   -10.177616    
       193   19.3           881.09098     -32784.634      11526.91      -3.5243481     -3.6369995      0.11265135    -0.011587605   -9.8303115     -0.012728854   -9.554037     
       194   19.4           876.58834     -32790.735      10868.382     -3.525004      -3.6370797      0.11207567    -0.011505777   -9.326595      -0.01264936    -8.951582     
       195   19.5           871.77274     -32796.729      10233.012     -3.5256483     -3.6371083      0.11145998    -0.011422973   -8.8410288     -0.012568932   -8.3700008    
       196   19.6           866.66278     -32802.612      9620.2281     -3.5262807     -3.6370874      0.11080665    -0.011339252   -8.3735141     -0.012487639   -7.8084541    
       197   19.7           861.27857     -32808.382      9029.5816     -3.526901      -3.6370193      0.11011825    -0.011254668   -7.9239236     -0.012405548   -7.266333     
       198   19.8           855.64173     -32814.038      8460.7521     -3.5275091     -3.6369066      0.10939756    -0.011169275   -7.4922316     -0.012322721   -6.7431364    
       199   19.9           849.77489     -32819.578      7913.4086     -3.5281046     -3.6367521      0.10864745    -0.011083124   -7.0783518     -0.012239221   -6.238405     
       200   20             843.70132     -32825.002      7386.5787     -3.5286877     -3.6365586      0.10787092    -0.010996264   -6.681704      -0.012155106   -5.7511114    
       201   20.1           837.44462     -32830.309      6879.794      -3.5292582     -3.6363292      0.10707098    -0.010908743   -6.3020475     -0.012070435   -5.2807129    
       202   20.2           831.0284      -32835.499      6391.987      -3.5298162     -3.6360668      0.10625063    -0.010820604   -5.9385906     -0.011985263   -4.8262179    
       203   20.3           824.47604     -32840.573      5922.8758     -3.5303616     -3.6357745      0.10541289    -0.010731891   -5.5912307     -0.011899643   -4.3872626    
       204   20.4           817.8106      -32845.53       5471.8734     -3.5308944     -3.6354551      0.10456068    -0.010642647   -5.2595644     -0.011813627   -3.9632669    
       205   20.5           811.05454     -32850.371      5038.0564     -3.5314149     -3.6351118      0.10369689    -0.010552909   -4.9428685     -0.011727265   -3.5534076    
       206   20.6           804.22965     -32855.097      4620.3969     -3.531923      -3.6347472      0.1028243     -0.010462716   -4.6400842     -0.011640605   -3.1570187    
       207   20.7           797.35687     -32859.71       4217.9765     -3.5324188     -3.6343644      0.10194558    -0.010372104   -4.3503821     -0.011553694   -2.7733843    
       208   20.8           790.45621     -32864.209      3830.454      -3.5329025     -3.6339658      0.1010633     -0.010281108   -4.0734574     -0.011466577   -2.4022405    
       209   20.9           783.54668     -32868.598      3456.6544     -3.5333742     -3.6335541      0.10017989    -0.01018976    -3.8082126     -0.011379298   -2.0427109    
       210   21             776.64613     -32872.876      3096.0397     -3.5338342     -3.6331318      0.099297621   -0.010098092   -3.5539839     -0.0112919     -1.6945294    
       211   21.1           769.77135     -32877.046      2747.6989     -3.5342824     -3.6327011      0.098418651   -0.010006135   -3.3097322     -0.011204422   -1.3572088    
       212   21.2           762.93798     -32881.109      2411.0294     -3.5347192     -3.6322642      0.097544973   -0.009913917   -3.0747395     -0.011116906   -1.0304388    
       213   21.3           756.16032     -32885.066      2084.9917     -3.5351446     -3.6318231      0.09667842    -0.0098214672  -2.8478692     -0.011029389   -0.71361402   
       214   21.4           749.45156     -32888.921      1768.9057     -3.535559      -3.6313797      0.095820675   -0.0097288123  -2.6284655     -0.010941909   -0.40621424   
       215   21.5           742.82388     -32892.673      1462.065      -3.5359624     -3.6309357      0.094973298   -0.0096359785  -2.4157265     -0.010854501   -0.1078356    
       216   21.6           736.28834     -32896.326      1164.0186     -3.536355      -3.6304927      0.0941377     -0.0095429915  -2.2090297     -0.010767202    0.18168286   
       217   21.7           729.85478     -32899.88       874.19076     -3.5367371     -3.6300523      0.093315141   -0.0094498759  -2.0076815     -0.010680045    0.46263315   
       218   21.8           723.53177     -32903.338      591.57875     -3.5371089     -3.6296156      0.092506717   -0.0093566558  -1.8107684     -0.010593063    0.73578504   
       219   21.9           717.3268      -32906.702      315.84026     -3.5374705     -3.6291839      0.091713384   -0.0092633548  -1.6177779     -0.010506288    1.0012268    
       220   22             711.24641     -32909.973      46.790802     -3.5378221     -3.6287581      0.09093598    -0.0091699961  -1.4283226     -0.010419751    1.2589104    
       221   22.1           705.29611     -32913.153     -216.15005     -3.538164      -3.6283392      0.090175208   -0.0090766022  -1.2417992     -0.010333483    1.5092142    
       222   22.2           699.48034     -32916.245     -473.3501      -3.5384963     -3.6279279      0.089431636   -0.0089831954  -1.0577841     -0.010247512    1.7523348    
       223   22.3           693.80265     -32919.249     -724.72055     -3.5388193     -3.627525       0.088705718   -0.0088897979  -0.8762519     -0.010161868    1.9881301    
       224   22.4           688.26582     -32922.169     -970.49073     -3.5391331     -3.6271309      0.08799781    -0.0087964312  -0.69694551    -0.010076578    2.2167366    
       225   22.5           682.87175     -32925.005     -1210.8103     -3.539438      -3.6267462      0.087308155   -0.0087031168  -0.51968835    -0.0099916687   2.4382308    
       226   22.6           677.62154     -32927.76      -1445.7229     -3.5397342     -3.6263711      0.086636892   -0.0086098757  -0.34441684    -0.0099071657   2.6526253    
       227   22.7           672.51531     -32930.437     -1675.7436     -3.540022      -3.626006       0.085984038   -0.008516729   -0.17062219    -0.0098230941   2.8602518    
       228   22.8           667.55237     -32933.036     -1900.7568     -3.5403014     -3.6256509      0.085349505   -0.0084236973   0.0015487958  -0.0097394783   3.0610639    
       229   22.9           662.73152     -32935.561     -2120.5923     -3.5405728     -3.6253059      0.084733138   -0.0083308011   0.17194117    -0.0096563415   3.2549239    
       230   23             658.05087     -32938.013     -2335.0517     -3.5408364     -3.6249711      0.084134696   -0.0082380606   0.34032004    -0.0095737062   3.4417346    
       231   23.1           653.50771     -32940.394     -2544.1104     -3.5410923     -3.6246462      0.083553833   -0.0081454959   0.506623      -0.0094915942   3.6215037    
       232   23.2           649.09862     -32942.706     -2747.7252     -3.5413409     -3.624331       0.082990112   -0.0080531266   0.67076051    -0.0094100262   3.7942323    
       233   23.3           644.81952     -32944.952     -2945.8928     -3.5415823     -3.6240254      0.08244301    -0.0079609723   0.83264985    -0.0093290222   3.959984     
       234   23.4           640.66566     -32947.134     -3138.5552     -3.5418169     -3.6237288      0.081911921   -0.007869052    0.99220493    -0.0092486014   4.1187286    
       235   23.5           636.6317      -32949.253     -3325.6671     -3.5420447     -3.6234409      0.081396162   -0.0077773847   1.1493015     -0.0091687819   4.2705037    
       236   23.6           632.7118      -32951.312     -3506.902      -3.5422661     -3.6231611      0.080894985   -0.0076859889   1.3035667     -0.0090895813   4.4151203    
       237   23.7           628.89974     -32953.314     -3682.2116     -3.5424812     -3.6228888      0.080407595   -0.0075948828   1.4548547     -0.009011016    4.5526221    
       238   23.8           625.18907     -32955.259     -3851.7799     -3.5426904     -3.6226235      0.07993317    -0.0075040843   1.6031561     -0.0089331019   4.6833259    
       239   23.9           621.57319     -32957.151     -4015.2205     -3.5428937     -3.6223646      0.079470864   -0.0074136107   1.7480852     -0.0088558537   4.8069546    
       240   24             618.04534     -32958.99      -4172.3871     -3.5430915     -3.6221113      0.079019812   -0.0073234791   1.88942       -0.0087792856   4.9234793    
       241   24.1           614.59876     -32960.78      -4323.2167     -3.5432839     -3.621863       0.078579153   -0.0072337061   2.0269849     -0.0087034106   5.0329647    
       242   24.2           611.22674     -32962.522     -4467.8999     -3.5434712     -3.6216192      0.078148025   -0.0071443078   2.1607356     -0.008628241    5.1357602    
       243   24.3           607.92287     -32964.219     -4605.8225     -3.5436535     -3.6213791      0.077725611   -0.0070552999   2.2901421     -0.0085537885   5.2313848    
       244   24.4           604.68124     -32965.871     -4736.9572     -3.5438311     -3.6211423      0.077311154   -0.0069666973   2.4150643     -0.0084800636   5.319938     
       245   24.5           601.49628     -32967.481     -4861.5412     -3.5440042     -3.6209082      0.076903943   -0.0068785148   2.5357339     -0.008407076    5.4015712    
       246   24.6           598.36301     -32969.051     -4979.4298     -3.544173      -3.6206764      0.076503341   -0.0067907663   2.6518597     -0.0083348349   5.4763541    
       247   24.7           595.27729     -32970.583     -5090.2239     -3.5443377     -3.6204465      0.076108818   -0.0067034652   2.7628987     -0.0082633483   5.5441844    
       248   24.8           592.23569     -32972.078     -5193.6566     -3.5444984     -3.6202184      0.075719936   -0.0066166245   2.8685189     -0.0081926234   5.6049613    
       249   24.9           589.23546     -32973.539     -5289.7181     -3.5446554     -3.6199918      0.075336343   -0.0065302563   2.9686495     -0.0081226668   5.6587552    
       250   25             586.27452     -32974.966     -5378.3222     -3.5448089     -3.6197667      0.074957775   -0.0064443722   3.063127      -0.0080534839   5.7055929    
       251   25.1           583.35151     -32976.363     -5459.3512     -3.544959      -3.619543       0.074584054   -0.0063589829   3.1517893     -0.0079850797   5.7454519    
       252   25.2           580.46568     -32977.729     -5532.7912     -3.5451059     -3.619321       0.074215088   -0.0062740986   3.2345694     -0.007917458    5.7783899    
       253   25.3           577.61684     -32979.068     -5598.5539     -3.5452498     -3.6191007      0.073850852   -0.0061897288   3.3113716     -0.007850622    5.8043669    
       254   25.4           574.8053      -32980.38      -5656.6157     -3.5453909     -3.6188823      0.073491385   -0.006105882    3.3821494     -0.0077845738   5.8234024    
       255   25.5           572.03176     -32981.668     -5706.9766     -3.5455293     -3.6186661      0.073136774   -0.0060225663   3.4469088     -0.0077193149   5.8355003    
       256   25.6           569.29723     -32982.933     -5749.714      -3.5456653     -3.6184524      0.072787153   -0.0059397888   3.5057071     -0.0076548459   5.8407405    
       257   25.7           566.603       -32984.176     -5784.8412     -3.5457989     -3.6182416      0.072442684   -0.0058575562   3.5586581     -0.0075911667   5.8390373    
       258   25.8           563.95068     -32985.398     -5812.1419     -3.5459303     -3.6180339      0.072103573   -0.0057758741   3.6055555     -0.0075282761   5.8302446    
       259   25.9           561.34223     -32986.602     -5831.5374     -3.5460597     -3.6178298      0.071770071   -0.0056947478   3.6463162     -0.0074661722   5.8143219    
       260   26             558.77991     -32987.789     -5843.4191     -3.5461873     -3.6176298      0.071442467   -0.0056141814   3.6813159     -0.0074048524   5.791539     
       261   26.1           556.2662      -32988.959     -5848.0188     -3.5463131     -3.6174342      0.071121078   -0.0055341787   3.7106899     -0.0073443131   5.762158     
       262   26.2           553.80378     -32990.115     -5845.2337     -3.5464373     -3.6172436      0.070806247   -0.0054547426   3.7344006     -0.00728455     5.726055     
       263   26.3           551.39558     -32991.257     -5835.354      -3.5465601     -3.6170584      0.070498349   -0.0053758753   3.7526851     -0.0072255578   5.6834814    
       264   26.4           549.0448      -32992.386     -5818.6653     -3.5466815     -3.6168793      0.070197791   -0.0052975786   3.7657551     -0.0071673308   5.6347062    
       265   26.5           546.7549      -32993.504     -5795.5668     -3.5468017     -3.6167067      0.069905018   -0.0052198534   3.7738952     -0.0071098622   5.5801138    
       266   26.6           544.52975     -32994.612     -5766.7334     -3.5469208     -3.6165413      0.069620521   -0.0051427002   3.7775298     -0.0070531448   5.5204027    
       267   26.7           542.37352     -32995.711     -5732.576      -3.5470389     -3.6163837      0.069344838   -0.0050661187   3.7770004     -0.0069971707   5.4559304    
       268   26.8           540.2906      -32996.8       -5693.5947     -3.547156      -3.6162346      0.069078528   -0.0049901084   3.7726395     -0.0069419313   5.3872038    
       269   26.9           538.28564     -32997.882     -5650.5749     -3.5472723     -3.6160945      0.068822184   -0.0049146682   3.765         -0.0068874177   5.3149714    
       270   27             536.36346     -32998.957     -5604.1146     -3.5473879     -3.6159643      0.068576425   -0.0048397966   3.7544883     -0.0068336205   5.2398241    
       271   27.1           534.52902     -33000.025     -5554.455      -3.5475027     -3.6158446      0.068341885   -0.0047654917   3.7411694     -0.0067805299   5.1621247    
       272   27.2           532.78734     -33001.088     -5502.218      -3.5476169     -3.6157361      0.068119203   -0.0046917514   3.7254376     -0.006728136    5.0825228    
       273   27.3           531.14339     -33002.145     -5448.018      -3.5477306     -3.6156396      0.067909017   -0.0046185731   3.7076774     -0.0066764284   5.0016662    
       274   27.4           529.60204     -33003.197     -5392.4663     -3.5478437     -3.6155556      0.067711949   -0.0045459543   3.688268      -0.0066253967   4.9202033    
       275   27.5           528.16796     -33004.245     -5336.217      -3.5479563     -3.6154849      0.067528595   -0.0044738919   3.6676057     -0.0065750306   4.8388405    
       276   27.6           526.84555     -33005.288     -5280.0169     -3.5480685     -3.615428       0.067359519   -0.004402383    3.6461469     -0.0065253195   4.7583814    
       277   27.7           525.63881     -33006.328     -5224.1545     -3.5481803     -3.6153855      0.067205231   -0.0043314243   3.6240659     -0.0064762531   4.6791368    
       278   27.8           524.55125     -33007.365     -5169.1186     -3.5482917     -3.6153579      0.067066182   -0.0042610126   3.601655      -0.0064278213   4.6016405    
       279   27.9           523.58591     -33008.398     -5115.455      -3.5484028     -3.6153455      0.06694276    -0.0041911446   3.5792581     -0.006380014    4.5264741    
       280   28             522.7453      -33009.428     -5063.4772     -3.5485135     -3.6153488      0.066835285   -0.0041218171   3.5570378     -0.0063328215   4.4540043    
       281   28.1           522.03139     -33010.455     -5013.5172     -3.548624      -3.615368       0.066744007   -0.0040530267   3.5351798     -0.0062862346   4.3846096    
       282   28.2           521.44561     -33011.481     -4965.9018     -3.5487342     -3.6154033      0.066669113   -0.0039847703   3.5138693     -0.0062402441   4.3186613    
       283   28.3           520.98904     -33012.503     -4921.1082     -3.5488441     -3.6154548      0.066610739   -0.0039170446   3.493385      -0.0061948415   4.2566955    
       284   28.4           520.66235     -33013.524     -4879.2054     -3.5489538     -3.6155228      0.06656897    -0.0038498466   3.4737523     -0.0061500187   4.198807     
       285   28.5           520.46582     -33014.543     -4840.5875     -3.5490634     -3.6156072      0.066543842   -0.0037831734   3.4552387     -0.006105768    4.1453923    
       286   28.6           520.39944     -33015.56      -4805.3229     -3.5491727     -3.6157081      0.066535355   -0.003717022    3.4378572     -0.0060620824   4.0965641    
       287   28.7           520.46288     -33016.576     -4773.4297     -3.5492819     -3.6158254      0.066543466   -0.0036513897   3.4215985     -0.0060189553   4.0523772    
       288   28.8           520.65556     -33017.591     -4745.0881     -3.549391      -3.6159591      0.066568102   -0.003586274    3.4065954     -0.0059763806   4.0130136    
       289   28.9           520.97673     -33018.604     -4720.2645     -3.5495        -3.6161091      0.066609165   -0.0035216724   3.3928181     -0.005934353    3.9784566    
       290   29             521.42542     -33019.617     -4698.9546     -3.5496089     -3.6162754      0.066666532   -0.0034575827   3.3802688     -0.0058928676   3.948709     
       291   29.1           522.00048     -33020.63      -4681.1869     -3.5497178     -3.6164578      0.066740056   -0.0033940026   3.3689936     -0.0058519201   3.9237875    
       292   29.2           522.70056     -33021.643     -4666.8481     -3.5498267     -3.6166562      0.066829564   -0.0033309302   3.3589252     -0.0058115068   3.9035801    
       293   29.3           523.52402     -33022.657     -4655.9669     -3.5499356     -3.6168705      0.066934847   -0.0032683635   3.3501291     -0.0057716245   3.8880807    
       294   29.4           524.46892     -33023.671     -4648.4887     -3.5500447     -3.6171003      0.067055657   -0.0032063009   3.3426476     -0.0057322706   3.8771624    
       295   29.5           525.533       -33024.687     -4644.1362     -3.5501539     -3.6173456      0.067191704   -0.0031447408   3.3363002     -0.005693443    3.8705581    
       296   29.6           526.71365     -33025.705     -4642.7121     -3.5502633     -3.6176059      0.067342655   -0.0030836818   3.3309786     -0.0056551401   3.8680646    
       297   29.7           528.0079      -33026.725     -4643.7626     -3.5503729     -3.617881       0.067508131   -0.0030231225   3.3264224     -0.005617361    3.8691843    
       298   29.8           529.41243     -33027.747     -4647.0399     -3.5504828     -3.6181705      0.067687706   -0.0029630617   3.3225214     -0.0055801049   3.8736229    
       299   29.9           530.92339     -33028.774     -4652.2756     -3.5505932     -3.6184741      0.067880889   -0.0029034983   3.3191532     -0.0055433716   3.8810628    
       300   30             532.53642     -33029.804     -4659.0887     -3.550704      -3.6187911      0.068087122   -0.0028444311   3.3161327     -0.0055071611   3.8910588    
       301   30.1           534.24663     -33030.84      -4667.177      -3.5508153     -3.619121       0.06830578    -0.002785859    3.3133119     -0.0054714739   3.9032576    
       302   30.2           536.04853     -33031.881     -4676.3426     -3.5509272     -3.6194633      0.06853616    -0.0027277811   3.310615      -0.0054363105   3.9174004    
       303   30.3           537.93605     -33032.928     -4686.2427     -3.5510397     -3.6198172      0.068777488   -0.0026701964   3.3078874     -0.0054016719   3.9330632    
       304   30.4           539.90259     -33033.982     -4696.1037     -3.5511531     -3.620182       0.06902892    -0.0026131037   3.3046771     -0.0053675591   3.9494185    
       305   30.5           541.94109     -33035.044     -4705.5031     -3.5512673     -3.6205568      0.06928955    -0.002556502    3.3007524     -0.0053339731   3.9659879    
       306   30.6           544.04387     -33036.115     -4714.1369     -3.5513824     -3.6209408      0.0695584     -0.0025003901   3.2959261     -0.0053009152   3.9824405    
       307   30.7           546.20284     -33037.196     -4721.3983     -3.5514986     -3.621333       0.069834434   -0.0024447667   3.289883      -0.0052683864   3.9980841    
       308   30.8           548.40948     -33038.287     -4726.8173     -3.5516159     -3.6217325      0.070116562   -0.0023896303   3.2823533     -0.0052363878   4.0123901    
       309   30.9           550.65486     -33039.39      -4729.9285     -3.5517344     -3.6221381      0.070403644   -0.0023349795   3.2730688     -0.0052049202   4.0248365    
       310   31             552.92968     -33040.505     -4730.4705     -3.5518543     -3.6225488      0.07069449    -0.0022808122   3.2618971     -0.0051739843   4.0351053    
       311   31.1           555.22434     -33041.633     -4727.9002     -3.5519756     -3.6229634      0.070987872   -0.0022271265   3.2484971     -0.0051435803   4.0426133    
       312   31.2           557.52894     -33042.776     -4721.7392     -3.5520984     -3.6233809      0.071282525   -0.0021739201   3.2325959     -0.0051137084   4.0468236    
       313   31.3           559.83337     -33043.933     -4711.6366     -3.5522228     -3.6237999      0.071577157   -0.0021211903   3.2140051     -0.0050843682   4.0473239    
       314   31.4           562.12742     -33045.106     -4697.0452     -3.5523489     -3.6242194      0.071870461   -0.0020689342   3.1923638     -0.0050555589   4.0435466    
       315   31.5           564.4008      -33046.296     -4677.6193     -3.5524768     -3.6246379      0.072161122   -0.0020171485   3.1674816     -0.0050272792   4.0350836    
       316   31.6           566.64327     -33047.504     -4652.9978     -3.5526066     -3.6250545      0.072447833   -0.0019658296   3.1391537     -0.0049995272   4.0215185    
       317   31.7           568.84476     -33048.729     -4622.8899     -3.5527384     -3.6254677      0.072729303   -0.0019149733   3.1072241     -0.0049723004   4.0025062    
       318   31.8           570.99542     -33049.974     -4587.0055     -3.5528722     -3.6258765      0.073004275   -0.0018645751   3.0715448     -0.0049455958   3.9776926    
       319   31.9           573.08584     -33051.239     -4545.0795     -3.5530082     -3.6262797      0.073271543   -0.0018146301   3.0320024     -0.0049194095   3.9467281    
       320   32             575.10706     -33052.524     -4496.8994     -3.5531463     -3.6266763      0.073529965   -0.0017651329   2.9885001     -0.0048937371   3.9093394    
       321   32.1           577.05069     -33053.829     -4442.1804     -3.5532867     -3.6270651      0.073778467   -0.0017160776   2.9408969     -0.0048685732   3.865176     
       322   32.2           578.90907     -33055.157     -4380.6825     -3.5534293     -3.6274454      0.074016068   -0.0016674578   2.8890874     -0.0048439119   3.8139337    
       323   32.3           580.67519     -33056.505     -4312.0612     -3.5535743     -3.6278162      0.074241875   -0.0016192668   2.8328898     -0.0048197461   3.7552317    
       324   32.4           582.34301     -33057.877     -4236.8314     -3.5537217     -3.6281768      0.074455113   -0.0015714971   2.7727483     -0.0047960681   3.6894456    
       325   32.5           583.90751     -33059.27      -4154.8684     -3.5538715     -3.6285267      0.074655141   -0.0015241409   2.7086422     -0.0047728693   3.6163813    
       326   32.6           585.36454     -33060.686     -4066.321      -3.5540238     -3.6288652      0.074841429   -0.00147719     2.6407424     -0.0047501403   3.5361177    
       327   32.7           586.71094     -33062.125     -3971.2909     -3.5541784     -3.629192       0.075013572   -0.0014306356   2.5691913     -0.0047278707   3.4486779    
       328   32.8           587.94447     -33063.586     -3869.9971     -3.5543355     -3.6295068      0.075171284   -0.0013844685   2.4942232     -0.0047060494   3.3541974    
       329   32.9           589.06385     -33065.071     -3762.9904     -3.5544951     -3.6298095      0.075314402   -0.0013386793   2.4163417     -0.0046846645   3.253101     
       330   33             590.0687      -33066.577     -3650.3088     -3.554657      -3.6300999      0.075442876   -0.001293258    2.3355958     -0.0046637033   3.1454031    
       331   33.1           590.95939     -33068.106     -3532.4785     -3.5548214     -3.6303782      0.075556755   -0.0012481945   2.2523992     -0.0046431522   3.0315747    
       332   33.2           591.73702     -33069.657     -3409.7237     -3.5549881     -3.6306443      0.075656179   -0.0012034783   2.1669067     -0.0046229971   2.9118574    
       333   33.3           592.40349     -33071.229     -3282.0871     -3.5551572     -3.6308986      0.07574139    -0.0011590986   2.0791996     -0.0046032231   2.7862731    
       334   33.4           592.9615      -33072.823     -3150.346      -3.5553285     -3.6311412      0.075812734   -0.0011150445   1.9898676     -0.0045838147   2.6555222    
       335   33.5           593.41438     -33074.438     -3014.8806     -3.555502      -3.6313727      0.075870636   -0.0010713047   1.8991739     -0.0045647558   2.5200023    
       336   33.6           593.76591     -33076.072     -2876.1161     -3.5556778     -3.6315933      0.075915582   -0.001027868    1.8073393     -0.0045460297   2.3802329    
       337   33.7           594.0203      -33077.726     -2734.6269     -3.5558556     -3.6318037      0.075948107   -0.00098472289  1.7147602     -0.0045276192   2.2367978    
       338   33.8           594.1821      -33079.4       -2590.8707     -3.5560355     -3.6320043      0.075968793   -0.00094185794  1.6217183     -0.0045095068   2.0902085    
       339   33.9           594.25613     -33081.091     -2445.3568     -3.5562173     -3.6321956      0.075978258   -0.00089926157  1.5285162     -0.0044916746   1.9410381    
       340   34             594.24743     -33082.8       -2298.6381     -3.556401      -3.6323782      0.075977146   -0.00085692224  1.4354866     -0.0044741044   1.7899047    
       341   34.1           594.16121     -33084.527     -2151.5079     -3.5565866     -3.6325527      0.075966122   -0.00081482844  1.3431098     -0.0044567779   1.6376746    
       342   34.2           594.00275     -33086.269     -2004.3065     -3.5567739     -3.6327198      0.075945863   -0.00077296875  1.2515722     -0.0044396766   1.4847685    
       343   34.3           593.77754     -33088.027     -1857.0999     -3.5569629     -3.6328799      0.075917069   -0.00073133187  1.16087       -0.0044227818   1.3314009    
       344   34.4           593.49102     -33089.799     -1710.8836     -3.5571534     -3.6330338      0.075880436   -0.00068990663  1.0715702     -0.0044060752   1.1786115    
       345   34.5           593.14844     -33091.585     -1566.2868     -3.5573454     -3.6331821      0.075836636   -0.00064868202  0.98406323    -0.0043895382   1.0270785    
       346   34.6           592.75488     -33093.385     -1423.7689     -3.5575389     -3.6333252      0.075786317   -0.00060764728  0.89863424    -0.0043731525   0.87730485   
       347   34.7           592.31509     -33095.197     -1283.6873     -3.5577336     -3.6334637      0.075730088   -0.0005667919   0.81537878    -0.0043569001   0.72981332   
       348   34.8           591.8335      -33097.02      -1146.437      -3.5579296     -3.6335982      0.075668514   -0.00052610565  0.73448479    -0.0043407633   0.58509021   
       349   34.9           591.31417     -33098.854     -1012.2858     -3.5581268     -3.6337289      0.075602116   -0.0004855786   0.65604171    -0.0043247247   0.44351274   
       350   35             590.76077     -33100.698     -881.73019     -3.5583251     -3.6338564      0.075531361   -0.00044520111  0.58030331    -0.0043087673   0.3056618    
       351   35.1           590.1765      -33102.552     -755.03097     -3.5585243     -3.633981       0.07545666    -0.00040496391  0.50742387    -0.0042928745   0.17182781   
       352   35.2           589.56398     -33104.414     -632.41987     -3.5587245     -3.6341028      0.075378346   -0.00036485804  0.43748044    -0.0042770305   0.04232301   
       353   35.3           588.92522     -33106.284     -513.98593     -3.5589255     -3.6342222      0.075296678   -0.00032487495  0.3704414     -0.0042612196  -0.082678133  
       354   35.4           588.26163     -33108.161     -399.87946     -3.5591273     -3.6343391      0.075211834   -0.00028500641  0.30634479    -0.0042454271  -0.20296743   
       355   35.5           587.57397     -33110.044     -290.21751     -3.5593297     -3.6344537      0.075123915   -0.00024524458  0.24521498    -0.0042296386  -0.31838276   
       356   35.6           586.86239     -33111.933     -185.03124     -3.5595328     -3.6345658      0.075032936   -0.00020558197  0.18701238    -0.0042138403  -0.42884305   
       357   35.7           586.12642     -33113.828     -84.305981     -3.5597365     -3.6346753      0.074938839   -0.00016601146  0.1316665     -0.0041980191  -0.53431685   
       358   35.8           585.36496     -33115.727      12.001336     -3.5599406     -3.6347821      0.074841483   -0.00012652627  0.079093014   -0.0041821626  -0.63480931   
       359   35.9           584.57637     -33117.629      104.05315     -3.5601451     -3.6348858      0.074740658   -8.7119972e-05  0.029130257   -0.0041662589  -0.73045065   
       360   36             583.75836     -33119.535      191.64547     -3.56035       -3.6349861      0.074636072   -4.7786456e-05 -0.018002468   -0.0041502967  -0.82114112   
       361   36.1           582.90818     -33121.443      274.90025     -3.5605552     -3.6350825      0.074527373   -8.519956e-06  -0.062556543   -0.0041342652  -0.90688549   
       362   36.2           582.02277     -33123.354      354.58734     -3.5607605     -3.6351747      0.074414169    3.0684975e-05 -0.10513994    -0.0041181545  -0.98836841   
       363   36.3           581.09869     -33125.265      430.94227     -3.560966      -3.635262       0.074296021    6.9833543e-05 -0.14593369    -0.0041019549  -1.0658314    
       364   36.4           580.13227     -33127.178      504.23521     -3.5611716     -3.6353441      0.074172461    0.00010893073 -0.18517248    -0.0040856574  -1.1395194    
       365   36.5           579.11972     -33129.09       574.88976     -3.5613772     -3.6354202      0.074043001    0.00014798133 -0.22321463    -0.0040692534  -1.209822     
       366   36.6           578.05717     -33131.003      643.3464      -3.5615828     -3.6354899      0.073907149    0.00018698997 -0.26039674    -0.0040527348  -1.2771784    
       367   36.7           576.94089     -33132.914      709.77995     -3.5617882     -3.6355527      0.073764429    0.0002259612  -0.29693133    -0.0040360936  -1.3417022    
       368   36.8           575.76732     -33134.824      774.93133     -3.5619935     -3.6356079      0.073614382    0.00026489946 -0.33331903    -0.0040193224  -1.4041586    
       369   36.9           574.53302     -33136.731      839.41117     -3.5621986     -3.6356552      0.073456572    0.00030380916 -0.36999634    -0.004002414   -1.4651525    
       370   37             573.23493     -33138.637      903.51254     -3.5624034     -3.6356941      0.073290605    0.00034269476 -0.40715757    -0.0039853614  -1.5250254    
       371   37.1           571.8705      -33140.539      967.43264     -3.5626079     -3.6357241      0.073116157    0.00038156077 -0.44497213    -0.0039681577  -1.5839755    
       372   37.2           570.43775     -33142.438      1031.604      -3.5628121     -3.635745       0.072932973    0.00042041174 -0.48377378    -0.0039507962  -1.6424394    
       373   37.3           568.93526     -33144.333      1096.6417     -3.5630158     -3.6357566      0.072740874    0.00045925238 -0.52403796    -0.00393327    -1.7010093    
       374   37.4           567.36221     -33146.223      1162.9653     -3.563219      -3.6357587      0.072539752    0.00049808752 -0.56606484    -0.0039155726  -1.7601161    
       375   37.5           565.71848     -33148.109      1230.584      -3.5634217     -3.6357513      0.072329594    0.00053692222 -0.60984964    -0.0038976972  -1.8198207    
       376   37.6           564.00478     -33149.989      1299.8309     -3.5636238     -3.6357343      0.07211049     0.00057576175 -0.65567324    -0.0038796369  -1.8804231    
       377   37.7           562.22257     -33151.864      1371.3413     -3.5638254     -3.635708       0.071882626    0.00061461158 -0.70396358    -0.0038613849  -1.9425764    
       378   37.8           560.37397     -33153.732      1445.4336     -3.5640262     -3.6356725      0.071646275    0.00065347751 -0.75490021    -0.0038429341  -2.0066482    
       379   37.9           558.46173     -33155.595      1522.4051     -3.5642265     -3.6356282      0.071401787    0.00069236561 -0.80873562    -0.0038242771  -2.0728885    
       380   38             556.48918     -33157.451      1602.1762     -3.5644259     -3.6355755      0.071149587    0.00073128232 -0.86539903    -0.0038054065  -2.1412595    
       381   38.1           554.46039     -33159.3        1684.9132     -3.5646247     -3.6355149      0.070890198    0.00077023437 -0.92498416    -0.0037863144  -2.2119516    
       382   38.2           552.38031     -33161.141      1770.266      -3.5648227     -3.6354469      0.07062425     0.00080922888 -0.98718016    -0.0037669929  -2.2846963    
       383   38.3           550.25441     -33162.976      1858.3801     -3.5650199     -3.6353723      0.070352445    0.00084827322 -1.0520545     -0.0037474335  -2.3596779    
       384   38.4           548.08861     -33164.802      1949.2674     -3.5652162     -3.6352918      0.070075538    0.00088737509 -1.1196787     -0.0037276278  -2.4368421    
       385   38.5           545.88919     -33166.621      2042.6964     -3.5654118     -3.6352061      0.069794332    0.00092654253 -1.1898746     -0.003707567   -2.5159831    
       386   38.6           543.66268     -33168.432      2138.6765     -3.5656065     -3.6351161      0.069509664    0.00096578384 -1.2626383     -0.0036872421  -2.5970967    
       387   38.7           541.41591     -33170.235      2236.6133     -3.5658003     -3.6350227      0.069222403    0.0010051076  -1.3375419     -0.0036666438  -2.6796366    
       388   38.8           539.15578     -33172.03       2336.3508     -3.5659933     -3.6349267      0.068933436    0.0010445228  -1.4144503     -0.0036457628  -2.7634699    
       389   38.9           536.88925     -33173.817      2437.5576     -3.5661854     -3.634829       0.06864365     0.0010840383  -1.4930999     -0.0036245895  -2.8482976    
       390   39             534.6232      -33175.596      2539.7866     -3.5663766     -3.6347305      0.068353926    0.0011236635  -1.5731622     -0.0036031144  -2.9337112    
       391   39.1           532.36451     -33177.366      2643.2169     -3.5665669     -3.634632       0.068065143    0.0011634078  -1.6547117     -0.0035813277  -3.0198551    
       392   39.2           530.11991     -33179.128      2747.2029     -3.5667563     -3.6345344      0.06777816     0.0012032809  -1.73726       -0.0035592197  -3.1061846    
       393   39.3           527.89581     -33180.882      2851.3597     -3.5669448     -3.6344386      0.067493799    0.0012432923  -1.8204951     -0.0035367806  -3.1923715    
       394   39.4           525.69833     -33182.627      2955.3613     -3.5671325     -3.6343453      0.067212842    0.0012834519  -1.9041404     -0.0035140007  -3.2781437    
       395   39.5           523.5333      -33184.365      3058.7745     -3.5673192     -3.6342553      0.066936033    0.0013237695  -1.9878234     -0.0034908703  -3.3631475    
       396   39.6           521.40622     -33186.094      3161.1638     -3.5675051     -3.6341692      0.066664076    0.0013642549  -2.0711708     -0.0034673799  -3.4470297    
       397   39.7           519.32223     -33187.815      3262.5497     -3.5676902     -3.6340878      0.066397629    0.0014049177  -2.1540971     -0.00344352    -3.5298844    
       398   39.8           517.28607     -33189.529      3362.4875     -3.5678743     -3.6340116      0.066137297    0.0014457677  -2.2362275     -0.0034192814  -3.6113637    
       399   39.9           515.30227     -33191.234      3460.2105     -3.5680577     -3.6339413      0.06588366     0.0014868145  -2.3168563     -0.003394655   -3.6909457    
       400   40             513.37504     -33192.932      3555.8268     -3.5682402     -3.6338774      0.065637255    0.0015280673  -2.3961452     -0.0033696319  -3.7686052    
       401   40.1           511.50811     -33194.622      3649.0224     -3.5684219     -3.6338204      0.06539856     0.0015695354  -2.4738097     -0.0033442034  -3.8441042    
       402   40.2           509.70503     -33196.305      3739.5735     -3.5686027     -3.6337708      0.065168028    0.0016112278  -2.5496072     -0.0033183613  -3.9173113    
       403   40.3           507.96915     -33197.98       3827.1256     -3.5687828     -3.6337289      0.064946088    0.0016531532  -2.6231907     -0.0032920975  -3.9879816    
       404   40.4           506.30373     -33199.647      3911.0355     -3.5689621     -3.6336953      0.064733157    0.0016953201  -2.6940251     -0.0032654042  -4.0555767    
       405   40.5           504.71196     -33201.308      3990.966      -3.5691406     -3.6336702      0.064529642    0.0017377366  -2.7618053     -0.0032382741  -4.1198516    
       406   40.6           503.19709     -33202.961      4066.5371     -3.5693183     -3.6336543      0.064335959    0.0017804105  -2.8261891     -0.0032107002  -4.1805163    
       407   40.7           501.76245     -33204.608      4137.4839     -3.5694953     -3.6336479      0.064152534    0.001823349   -2.8868838     -0.0031826759  -4.2374053    
       408   40.8           500.41144     -33206.247      4203.5047     -3.5696715     -3.6336513      0.063979803    0.0018665592  -2.9436153     -0.0031541952  -4.2902917    
       409   40.9           499.14755     -33207.879      4264.2497     -3.569847      -3.6336652      0.063818208    0.0019100473  -2.9960743     -0.0031252526  -4.3389016    
       410   41             497.97431     -33209.504      4319.2928     -3.5700217     -3.6336899      0.063668205    0.0019538193  -3.0438913     -0.0030958429  -4.3828912    
       411   41.1           496.89546     -33211.123      4368.25       -3.5701957     -3.633726       0.063530268    0.0019978805  -3.0867674     -0.0030659616  -4.4219001    
       412   41.2           495.91476     -33212.734      4410.5669     -3.5703689     -3.6337738      0.063404881    0.0020422355  -3.1242546     -0.0030356049  -4.4554559    
       413   41.3           495.0359      -33214.339      4445.8113     -3.5705414     -3.6338339      0.063292515    0.0020868884  -3.155982      -0.0030047694  -4.48321      
       414   41.4           494.26262     -33215.936      4473.3985     -3.5707131     -3.6339067      0.063193648    0.0021318426  -3.181479      -0.0029734527  -4.5046911    
       415   41.5           493.59866     -33217.526      4493.4017     -3.570884      -3.6339928      0.063108758    0.0021771007  -3.2008308     -0.0029416529  -4.5199032    
       416   41.6           493.04762     -33219.108      4504.7237     -3.5710542     -3.6340925      0.063038305    0.0022226645  -3.2132001     -0.002909369   -4.5278828    
       417   41.7           492.61292     -33220.684      4507.5729     -3.5712235     -3.6342062      0.062982727    0.0022685351  -3.218725      -0.0028766008  -4.528808     
       418   41.8           492.29753     -33222.251      4502.1723     -3.571392      -3.6343344      0.062942403    0.0023147127  -3.217684      -0.0028433489  -4.5227416    
       419   41.9           492.10384     -33223.81       4488.3549     -3.5715596     -3.6344772      0.062917639    0.0023611967  -3.2100076     -0.0028096149  -4.5094668    
       420   42             492.03371     -33225.362      4466.0521     -3.5717264     -3.634635       0.062908672    0.0024079856  -3.1957095     -0.002775401   -4.4888471    
       421   42.1           492.08832     -33226.905      4435.2373     -3.5718922     -3.6348079      0.062915654    0.0024550775  -3.1748463     -0.0027407105  -4.4607725    
       422   42.2           492.26821     -33228.439      4395.8645     -3.5720572     -3.6349958      0.062938654    0.0025024691  -3.147442      -0.0027055475  -4.4251296    
[...]
     10895   1089.5         525.89488     -29207.848     -2536.25       -3.1398437     -3.2070817      0.067237972    1.0114589      4.2145886     -0.26323027     0.3695537    
     10896   1089.6         525.92232     -29207.892     -2566.6044     -3.1398484     -3.2070899      0.067241481    1.01156        4.231397      -0.26324443     0.40149024   
     10897   1089.7         525.94849     -29207.937     -2596.6242     -3.1398533     -3.2070981      0.067244826    1.0116611      4.2478666     -0.26325862     0.43318486   
     10898   1089.8         525.97486     -29207.982     -2629.6172     -3.1398581     -3.2071063      0.067248198    1.0117622      4.2670308     -0.26327285     0.46711659   
     10899   1089.9         526.0015      -29208.03      -2658.9218     -3.1398632     -3.2071148      0.067251604    1.0118633      4.2828275     -0.26328713     0.49823219   
     10900   1090           526.027       -29208.079     -2687.8123     -3.1398685     -3.2071233      0.067254864    1.0119644      4.2982602     -0.26330146     0.528986     
     10901   1090.1         526.05138     -29208.129     -2716.2653     -3.1398739     -3.2071319      0.067257982    1.0120655      4.3133223     -0.26331583     0.55934291   
     10902   1090.2         526.07468     -29208.181     -2744.2284     -3.1398794     -3.2071404      0.06726096     1.0121666      4.3279948     -0.26333027     0.58924171   
     10903   1090.3         526.0969      -29208.234     -2771.6703     -3.1398852     -3.207149       0.067263801    1.0122678      4.3422672     -0.26334476     0.61863893   
     10904   1090.4         526.118       -29208.289     -2798.4086     -3.139891      -3.2071575      0.067266499    1.0123689      4.3561416     -0.26335931     0.64720471   
     10905   1090.5         526.13796     -29208.345     -2824.6395     -3.1398971     -3.2071661      0.06726905     1.01247        4.3696118     -0.26337394     0.67528543   
     10906   1090.6         526.15683     -29208.403     -2850.3462     -3.1399033     -3.2071748      0.067271464    1.0125711      4.3826729     -0.26338863     0.70288485   
     10907   1090.7         526.17468     -29208.462     -2875.4344     -3.1399097     -3.2071835      0.067273745    1.0126722      4.3953177     -0.2634034      0.72986942   
     10908   1090.8         526.19152     -29208.524     -2899.9227     -3.1399163     -3.2071922      0.067275899    1.0127733      4.4075465     -0.26341824     0.75622212   
     10909   1090.9         526.20738     -29208.586     -2923.7865     -3.139923      -3.207201       0.067277927    1.0128744      4.4193551     -0.26343317     0.78190644   
     10910   1091           526.22228     -29208.651     -2947.0035     -3.13993       -3.2072098      0.067279831    1.0129755      4.4307398     -0.26344817     0.80689003   
     10911   1091.1         526.23623     -29208.717     -2969.5814     -3.1399371     -3.2072187      0.067281615    1.0130766      4.4417219     -0.26346327     0.83116709   
     10912   1091.2         526.24926     -29208.785     -2991.4824     -3.1399444     -3.2072277      0.067283281    1.0131777      4.452282      -0.26347846     0.8546945    
     10913   1091.3         526.26138     -29208.855     -3012.6763     -3.1399519     -3.2072368      0.06728483     1.0132788      4.4624087     -0.26349374     0.87743628   
     10914   1091.4         526.2726      -29208.927     -3033.1446     -3.1399596     -3.2072459      0.067286265    1.0133799      4.4720996     -0.26350911     0.89936737   
     10915   1091.5         526.28294     -29209         -3052.8758     -3.1399675     -3.2072551      0.067287587    1.013481       4.4813582     -0.26352459     0.92046856   
     10916   1091.6         526.29307     -29209.076     -3075.2076     -3.1399757     -3.2072646      0.067288882    1.0135821      4.4907978     -0.26354017     0.94517845   
     10917   1091.7         526.30298     -29209.154     -3093.4723     -3.139984      -3.2072742      0.067290149    1.0136832      4.4992258     -0.26355585     0.9646083    
     10918   1091.8         526.31201     -29209.233     -3110.942      -3.1399925     -3.2072838      0.067291303    1.0137843      4.5072096     -0.26357164     0.98313732   
     10919   1091.9         526.32018     -29209.314     -3127.6021     -3.1400013     -3.2072936      0.067292348    1.0138854      4.5147485     -0.26358753     1.000747     
     10920   1092           526.32751     -29209.397     -3143.4388     -3.1400102     -3.2073035      0.067293286    1.0139865      4.5218423     -0.26360354     1.0174201    
     10921   1092.1         526.33403     -29209.482     -3158.435      -3.1400194     -3.2073135      0.067294119    1.0140876      4.5284862     -0.26361967     1.033138     
     10922   1092.2         526.33974     -29209.569     -3172.571      -3.1400287     -3.2073236      0.067294849    1.0141887      4.5346719     -0.26363591     1.047881     
     10923   1092.3         526.34467     -29209.659     -3185.8386     -3.1400383     -3.2073338      0.067295479    1.0142898      4.5404032     -0.26365226     1.0616385    
     10924   1092.4         526.34882     -29209.749     -3198.2562     -3.1400481     -3.2073441      0.067296009    1.0143909      4.5456996     -0.26366874     1.0744188    
     10925   1092.5         526.35219     -29209.842     -3209.7561     -3.1400581     -3.2073545      0.067296441    1.014492       4.5505233     -0.26368534     1.0861675    
     10926   1092.6         526.35479     -29209.937     -3220.3556     -3.1400683     -3.207365       0.067296774    1.0145931      4.5548996     -0.26370205     1.0968917    
     10927   1092.7         526.35663     -29210.034     -3230.0581     -3.1400787     -3.2073757      0.067297008    1.0146942      4.5588384     -0.26371889     1.106593     
     10928   1092.8         526.35769     -29210.133     -3238.86       -3.1400893     -3.2073864      0.067297144    1.0147953      4.5623442     -0.26373586     1.1152673    
     10929   1092.9         526.35798     -29210.234     -3246.7534     -3.1401001     -3.2073973      0.067297181    1.0148964      4.5654186     -0.26375295     1.1229054    
     10930   1093           526.35748     -29210.337     -3253.7376     -3.1401112     -3.2074083      0.067297118    1.0149976      4.5680672     -0.26377017     1.1295074    
     10931   1093.1         526.3562      -29210.441     -3259.8036     -3.1401224     -3.2074194      0.067296954    1.0150987      4.5702886     -0.26378751     1.1350656    
     10932   1093.2         526.35411     -29210.548     -3264.9563     -3.1401339     -3.2074306      0.067296686    1.0151998      4.5720928     -0.26380499     1.1395837    
     10933   1093.3         526.35119     -29210.656     -3269.1982     -3.1401456     -3.2074419      0.067296313    1.0153009      4.5734862     -0.26382259     1.1430649    
     10934   1093.4         526.34741     -29210.767     -3272.5125     -3.1401574     -3.2074533      0.067295829    1.015402       4.5744637     -0.26384031     1.1454905    
     10935   1093.5         526.34273     -29210.879     -3274.9152     -3.1401695     -3.2074647      0.067295232    1.0155031      4.5750391     -0.26385817     1.1468788    
     10936   1093.6         526.33712     -29210.993     -3276.4081     -3.1401817     -3.2074763      0.067294514    1.0156042      4.5752197     -0.26387615     1.1472368    
     10937   1093.7         526.33049     -29211.109     -3277.1241     -3.1401942     -3.2074879      0.067293667    1.0157053      4.5750602     -0.26389427     1.1467208    
     10938   1093.8         526.32273     -29211.227     -3277.0682     -3.1402069     -3.2074995      0.067292675    1.0158064      4.5745733     -0.26391251     1.1453306    
     10939   1093.9         526.31373     -29211.346     -3275.901      -3.1402197     -3.2075112      0.067291523    1.0159075      4.5736949     -0.26393088     1.1425653    
     10940   1094           526.30329     -29211.467     -3273.7682     -3.1402327     -3.2075229      0.067290188    1.0160086      4.5722274     -0.26394938     1.1388927    
     10941   1094.1         526.2913      -29211.59      -3270.8857     -3.1402459     -3.2075346      0.067288656    1.0161097      4.5704934     -0.263968       1.1343464    
     10942   1094.2         526.2778      -29211.714     -3267.2459     -3.1402593     -3.2075462      0.06728693     1.0162108      4.5684831     -0.26398675     1.1289185    
     10943   1094.3         526.26276     -29211.84      -3262.8059     -3.1402728     -3.2075578      0.067285006    1.0163119      4.5661557     -0.26400562     1.1225814    
     10944   1094.4         526.24611     -29211.968     -3257.5694     -3.1402866     -3.2075694      0.067282878    1.016413       4.5635152     -0.26402462     1.1153446    
     10945   1094.5         526.2278      -29212.097     -3251.5425     -3.1403004     -3.207581       0.067280537    1.0165141      4.5605653     -0.26404374     1.1072182    
     10946   1094.6         526.20776     -29212.228     -3244.7398     -3.1403145     -3.2075925      0.067277975    1.0166152      4.5573135     -0.26406299     1.0982199    
     10947   1094.7         526.18591     -29212.36      -3237.1301     -3.1403287     -3.2076039      0.067275181    1.0167163      4.5537402     -0.26408235     1.0883293    
     10948   1094.8         526.16218     -29212.493     -3228.7327     -3.140343      -3.2076152      0.067272147    1.0168174      4.5498549     -0.26410183     1.0775716    
     10949   1094.9         526.1365      -29212.628     -3219.6178     -3.1403575     -3.2076264      0.067268865    1.0169185      4.5456967     -0.26412143     1.0660108    
     10950   1095           526.1088      -29212.764     -3209.8033     -3.1403721     -3.2076375      0.067265322    1.0170196      4.5412739     -0.26414115     1.0536684    
     10951   1095.1         526.07898     -29212.901     -3199.3072     -3.1403869     -3.2076484      0.067261509    1.0171207      4.536595      -0.26416098     1.0405664    
     10952   1095.2         526.04696     -29213.04      -3188.1475     -3.1404018     -3.2076592      0.067257416    1.0172218      4.5316678     -0.26418092     1.0267266    
     10953   1095.3         526.01267     -29213.179     -3176.342      -3.1404168     -3.2076698      0.067253032    1.0173229      4.5265003     -0.26420097     1.012171     
     10954   1095.4         525.97602     -29213.32      -3163.9087     -3.1404319     -3.2076802      0.067248346    1.017424       4.5210998     -0.26422113     0.9969216    
     10955   1095.5         525.93694     -29213.462     -3150.8652     -3.1404471     -3.2076905      0.067243349    1.0175251      4.5154737     -0.2642414      0.98100056   
     10956   1095.6         525.89533     -29213.604     -3137.2312     -3.1404625     -3.2077005      0.06723803     1.0176263      4.5096302     -0.26426177     0.96443243   
     10957   1095.7         525.85115     -29213.748     -3123.0516     -3.1404779     -3.2077103      0.06723238     1.0177274      4.5035901     -0.26428225     0.9472694    
     10958   1095.8         525.80431     -29213.892     -3108.3273     -3.1404934     -3.2077198      0.067226392    1.0178285      4.4973517     -0.26430282     0.92951531   
     10959   1095.9         525.75476     -29214.037     -3093.0658     -3.140509      -3.2077291      0.067220057    1.0179296      4.4909168     -0.26432349     0.91118171   
     10960   1096           525.70242     -29214.183     -3077.284      -3.1405247     -3.2077381      0.067213365    1.0180307      4.4842912     -0.26434425     0.89229058   
     10961   1096.1         525.64725     -29214.33      -3061.0028     -3.1405404     -3.2077467      0.067206311    1.0181318      4.4774827     -0.2643651      0.872866     
     10962   1096.2         525.58919     -29214.477     -3044.2383     -3.1405563     -3.2077551      0.067198887    1.0182329      4.4704969     -0.26438605     0.85293001   
     10963   1096.3         525.52818     -29214.624     -3027.0035     -3.1405721     -3.2077632      0.067191088    1.018334       4.4633374     -0.26440708     0.83250315   
     10964   1096.4         525.46422     -29214.773     -3009.2692     -3.140588      -3.207771       0.06718291     1.0184351      4.4559852     -0.26442819     0.81157803   
     10965   1096.5         525.39727     -29214.921     -2991.1019     -3.140604      -3.2077784      0.067174351    1.0185362      4.4484721     -0.26444939     0.7902106    
     10966   1096.6         525.32734     -29215.07      -2972.5202     -3.14062       -3.2077854      0.067165409    1.0186373      4.4408046     -0.26447066     0.76842585   
     10967   1096.7         525.25441     -29215.219     -2953.5441     -3.1406361     -3.2077922      0.067156085    1.0187384      4.4329894     -0.26449201     0.7462498    
     10968   1096.8         525.17852     -29215.369     -2934.193      -3.1406521     -3.2077985      0.067146382    1.0188395      4.425033      -0.26451343     0.72370817   
     10969   1096.9         525.09971     -29215.518     -2914.5293     -3.1406682     -3.2078045      0.067136306    1.0189406      4.4169845     -0.26453491     0.7008587    
     10970   1097           525.01806     -29215.668     -2894.5627     -3.1406843     -3.2078102      0.067125866    1.0190417      4.4088356     -0.26455647     0.6777242    
     10971   1097.1         524.93365     -29215.818     -2874.2927     -3.1407004     -3.2078155      0.067115075    1.0191428      4.4005707     -0.26457809     0.65431628   
     10972   1097.2         524.84667     -29215.968     -2853.5683     -3.1407165     -3.2078205      0.067103954    1.0192439      4.3921378     -0.26459976     0.63059082   
     10973   1097.3         524.75736     -29216.118     -2832.4605     -3.1407326     -3.2078252      0.067092535    1.019345       4.3835608     -0.2646215      0.60660157   
     10974   1097.4         524.66594     -29216.267     -2811.1418     -3.1407487     -3.2078296      0.067080846    1.0194461      4.3749014     -0.26464328     0.58244939   
     10975   1097.5         524.57262     -29216.417     -2789.645      -3.1407648     -3.2078337      0.067068915    1.0195472      4.3661716     -0.26466512     0.5581743    
     10976   1097.6         524.47767     -29216.566     -2768.0056     -3.1407809     -3.2078377      0.067056776    1.0196483      4.3573842     -0.264687       0.53381905   
     10977   1097.7         524.3814      -29216.715     -2746.2608     -3.1407969     -3.2078414      0.067044466    1.0197494      4.3485533     -0.26470893     0.5094279    
     10978   1097.8         524.28413     -29216.864     -2724.4481     -3.1408129     -3.2078449      0.067032031    1.0198505      4.339692      -0.26473089     0.48504629   
     10979   1097.9         524.18627     -29217.013     -2702.6023     -3.1408289     -3.2078484      0.067019519    1.0199516      4.3308112     -0.2647529      0.46071929   
     10980   1098           524.08825     -29217.161     -2680.7411     -3.1408448     -3.2078518      0.067006987    1.0200527      4.321911      -0.26477494     0.43648496   
     10981   1098.1         523.99056     -29217.309     -2658.9572     -3.1408607     -3.2078552      0.066994496    1.0201538      4.3130328     -0.264797       0.41242308   
     10982   1098.2         523.8937      -29217.456     -2637.3036     -3.1408765     -3.2078586      0.066982113    1.0202549      4.3041915     -0.2648191      0.38859128   
     10983   1098.3         523.79825     -29217.603     -2615.8373     -3.1408923     -3.2078622      0.066969909    1.0203561      4.2954312     -0.26484122     0.36505429   
     10984   1098.4         523.70481     -29217.749     -2594.5923     -3.140908      -3.207866       0.066957961    1.0204572      4.2867571     -0.26486336     0.34185485   
     10985   1098.5         523.61401     -29217.895     -2573.595      -3.1409237     -3.2078701      0.066946352    1.0205583      4.27817       -0.26488552     0.3190259    
     10986   1098.6         523.52653     -29218.04      -2552.9015     -3.1409393     -3.2078745      0.066935168    1.0206594      4.2696922     -0.2649077      0.29663051   
     10987   1098.7         523.44308     -29218.185     -2532.5797     -3.1409549     -3.2078794      0.066924498    1.0207605      4.2613506     -0.26492988     0.274745     
     10988   1098.8         523.36431     -29218.329     -2512.467      -3.1409704     -3.2078848      0.066914427    1.0208616      4.2531271     -0.26495208     0.25313263   
     10989   1098.9         523.29094     -29218.473     -2492.9759     -3.1409858     -3.2078908      0.066905047    1.0209627      4.2451046     -0.26497428     0.23234564   
     10990   1099           523.22376     -29218.615     -2474.0263     -3.1410012     -3.2078976      0.066896457    1.0210638      4.2372786     -0.26499649     0.21226311   
     10991   1099.1         523.1635      -29218.758     -2455.6577     -3.1410165     -3.2079052      0.066888753    1.0211649      4.2296673     -0.26501869     0.19292457   
     10992   1099.2         523.1109      -29218.9       -2437.9192     -3.1410317     -3.2079137      0.066882027    1.021266       4.2222916     -0.2650409      0.17438157   
     10993   1099.3         523.06664     -29219.041     -2420.7921     -3.1410469     -3.2079233      0.066876369    1.0213671      4.2151567     -0.2650631      0.15664027   
     10994   1099.4         523.03139     -29219.181     -2404.3471     -3.141062      -3.2079339      0.066871862    1.0214682      4.2082726     -0.2650853      0.13976008   
     10995   1099.5         523.00577     -29219.322     -2388.6422     -3.1410771     -3.2079457      0.066868586    1.0215693      4.2016604     -0.26510749     0.12379781   
     10996   1099.6         522.99035     -29219.461     -2373.7168     -3.1410921     -3.2079587      0.066866614    1.0216704      4.1953347     -0.26512967     0.10879698   
     10997   1099.7         522.98563     -29219.6       -2359.6301     -3.141107      -3.207973       0.066866012    1.0217715      4.1893374     -0.26515183     0.094801884  
     10998   1099.8         522.99208     -29219.739     -2346.3878     -3.1411219     -3.2079888      0.066866836    1.0218726      4.1836521     -0.26517398     0.081835036  
     10999   1099.9         523.01004     -29219.877     -2333.9894     -3.1411368     -3.208006       0.066869132    1.0219737      4.1782586     -0.26519612     0.069912313  
     11000   1100           523.03978     -29220.015     -2322.4761     -3.1411517     -3.2080246      0.066872935    1.0220748      4.1731832     -0.26521823     0.05906789   
Loop time of 39.2309 on 64 procs for 10000 steps with 400 atoms

Performance: 2.202 ns/day, 10.897 hours/ns, 254.901 timesteps/s
6193.2% CPU use with 1 MPI tasks x 64 OpenMP threads

MPI task timing breakdown:
Section |  min time  |  avg time  |  max time  |%varavg| %total
---------------------------------------------------------------
Pair    | 37.976     | 37.976     | 37.976     |   0.0 | 96.80
Neigh   | 0.060005   | 0.060005   | 0.060005   |   0.0 |  0.15
Comm    | 0.029439   | 0.029439   | 0.029439   |   0.0 |  0.08
Output  | 0.57494    | 0.57494    | 0.57494    |   0.0 |  1.47
Modify  | 0.55436    | 0.55436    | 0.55436    |   0.0 |  1.41
Other   |            | 0.03565    |            |       |  0.09

Nlocal:            400 ave         400 max         400 min
Histogram: 1 0 0 0 0 0 0 0 0 0
Nghost:            490 ave         490 max         490 min
Histogram: 1 0 0 0 0 0 0 0 0 0
Neighs:          11692 ave       11692 max       11692 min
Histogram: 1 0 0 0 0 0 0 0 0 0

Total # of neighbors = 11692
Ave neighs/atom = 29.23
Neighbor list builds = 76
Dangerous builds = 0
Total wall time: 0:00:44
