LAMMPS (23 Jun 2022 - Update 2)
  using 64 OpenMP thread(s) per MPI task
################################################################################
# GRAPHENE: TENSILE TEST
################################################################################
#
# This is a lammps input file to simulate the stretching or compression of
# graphene. The output data can be used to calculate the Young's modulus and the
# breaking stress/strain. Buckling of a graphene sheet can be studied by
# compressing the sheet.
#
# When using this script, make sure that lammps is installed with the USER-REAXC
# and the MANYBODY packages.
#
# Date: 28/03/2016
# Author: Jeroen Mulkers
# Mail: jeroen.mulkers@uantwerpen.be
#
################################################################################


# UNITS
# 'real' units are needed when using reax/c. The default time step (1fs) for
# real units is used. Some useful conversion factors are defined.
units        real
timestep     1
variable     fpress  equal 0.000101325  # atm -> GPa
variable     fenergy equal 0.043        # Kcal/mole -> eV

# GRAPHENE SHEET
# The atom positions and the simulation box size will be read from a data file.
# Reactive force fields (reaxFF) are used to describe the interaction between
# the carbon atoms.(The pair_style reax is deprecated. so we use the modern
# reax/c implementation)
dimension    3
boundary     p p f
atom_style   charge
read_data    silicene.dat
Reading data file ...
  orthogonal box = (0 0 -10) to (65.502 37.8176 10)
  1 by 1 by 1 MPI processor grid
  reading atoms ...
  400 atoms
  read_data CPU = 0.003 seconds
pair_style   reax/c NULL checkqeq no
pair_coeff   * * ffield.reax.CHONSSi.2 Si

# OUTPUT
# Calculate the average total, kinetic and potential energy per atom. Stress and
# strain are defined in x and y direction. When calculating the stress, we
# assume that the thickness of graphene is 3.35A.
variable     tmp     equal lx
variable     lx0     equal ${tmp}
variable     lx0     equal 65.502
variable     tmp     equal ly
variable     ly0     equal ${tmp}
variable     ly0     equal 37.8176
variable     etotal  equal etotal/atoms*${fenergy} #eV/atom
variable     etotal  equal etotal/atoms*0.043 
variable     pe      equal     pe/atoms*${fenergy} #eV/atom
variable     pe      equal     pe/atoms*0.043 
variable     ke      equal     ke/atoms*${fenergy} #eV/atom
variable     ke      equal     ke/atoms*0.043 
variable     strainx equal (lx-${lx0})/${lx0}
variable     strainx equal (lx-65.502)/${lx0}
variable     strainx equal (lx-65.502)/65.502
variable     strainy equal (ly-${ly0})/${ly0}
variable     strainy equal (ly-37.8176)/${ly0}
variable     strainy equal (ly-37.8176)/37.8176
variable     stressx equal -pxx*(lz/3.35)*${fpress} #GPa
variable     stressx equal -pxx*(lz/3.35)*0.000101325 
variable     stressy equal -pyy*(lz/3.35)*${fpress} #GPa
variable     stressy equal -pyy*(lz/3.35)*0.000101325 
thermo_style custom step time temp etotal press v_etotal v_pe v_ke              v_strainx v_stressx v_strainy v_stressy

# TEMPERATURE SETTINGS
variable     temp index 500
variable     seed index 1717
velocity     all create ${temp} ${seed} dist uniform
velocity     all create 500 ${seed} dist uniform
velocity     all create 500 1717 dist uniform

# EQUILIBRATION
# Relaxation of the system will be done in a NPT ensemble. The size of the
# simulation box can change in x and y direction to resolve stresses. The number
# of time steps should be large enough to relax the system in your final
# simulation but can be small for debugging purposes.
fix          fnpt all npt temp ${temp} ${temp} 10 x 0 0 500 y 0 0 500
fix          fnpt all npt temp 500 ${temp} 10 x 0 0 500 y 0 0 500
fix          fnpt all npt temp 500 500 10 x 0 0 500 y 0 0 500
thermo       1
run          1000

CITE-CITE-CITE-CITE-CITE-CITE-CITE-CITE-CITE-CITE-CITE-CITE-CITE

Your simulation uses code contributions which should be cited:

- pair reaxff command:

@Article{Aktulga12,
 author = {H. M. Aktulga, J. C. Fogarty, S. A. Pandit, A. Y. Grama},
 title = {Parallel reactive molecular dynamics: Numerical methods and algorithmic techniques},
 journal = {Parallel Computing},
 year =    2012,
 volume =  38,
 pages =   {245--259}
}

CITE-CITE-CITE-CITE-CITE-CITE-CITE-CITE-CITE-CITE-CITE-CITE-CITE

Neighbor list info ...
  update every 1 steps, delay 10 steps, check yes
  max neighbors/atom: 2000, page size: 100000
  master list distance cutoff = 12
  ghost atom cutoff = 12
  binsize = 6, bins = 11 7 4
  1 neighbor lists, perpetual/occasional/extra = 1 0 0
  (1) pair reax/c, perpetual
      attributes: half, newton off, ghost
      pair build: half/bin/newtoff/ghost
      stencil: full/ghost/bin/3d
      bin: standard
Per MPI rank memory allocation (min/avg/max) = 70.99 | 70.99 | 70.99 Mbytes
   Step          Time           Temp          TotEng         Press         v_etotal         v_pe           v_ke        v_strainx      v_stressx      v_strainy      v_stressy   
         0   0              500           -32324.204     -12789.914     -3.474852      -3.5387792      0.063927198    0              11.230916      0              11.230989    
         1   1              502.18982     -32325.997     -12873.567     -3.4750447     -3.5392519      0.064207176   -6.732761e-05   11.231406     -6.7328051e-05  11.360786    
         2   2              510.78201     -32331.543     -13253.402     -3.4756409     -3.5409466      0.065305724   -0.00026927105  11.475932     -0.0002708227   11.737956    
         3   3              526.56384     -32341.481     -13914.966     -3.4767092     -3.5440327      0.067323501   -0.00060861513  11.948595     -0.00061485515  12.353749    
         4   4              550.82815     -32356.991     -14813.138     -3.4783765     -3.5488023      0.0704258     -0.0010907393   12.607634     -0.001106509    13.173861    
         5   5              585.15095     -32379.871     -15836.513     -3.4808361     -3.5556502      0.074814121   -0.0017230468   13.356437     -0.0017550919   14.107715    
         6   6              630.6467      -32412.517     -16759.667     -3.4843456     -3.5649766      0.080630952   -0.0025137026   14.005567     -0.0025709357   14.966119    
         7   7              686.41101     -32457.527     -17220.847     -3.4891841     -3.5769448      0.087760664   -0.0034692346   14.256342     -0.0035629843   15.439108    
         8   8              747.62953     -32516.326     -16767.425     -3.495505      -3.5910928      0.095587721   -0.0045908294   13.740598     -0.0047349355   15.129384    
         9   9              804.51269     -32586.179     -14801.281     -3.5030143     -3.6058748      0.10286048    -0.0058698607   11.990873     -0.0060803996   13.485799    
        10   10             840.87439     -32655.823     -10061.715     -3.5105009     -3.6180104      0.10750949    -0.0072824101   8.0164908     -0.0075764189   9.3615002    
        11   11             834.2097      -32704.727     -494.71294     -3.5157581     -3.6224155      0.10665738    -0.0087780199  -0.0052816454  -0.0091704131   1.1302513    
        12   12             773.45677     -32709.072      14734.904     -3.5162252     -3.6151151      0.098889848   -0.010259507   -12.887145     -0.01076238    -11.772105    
        13   13             695.26566     -32664.149      31394.522     -3.511396      -3.6002888      0.08889277    -0.01157559    -26.883955     -0.012200493   -25.929721    
        14   14             670.53691     -32605.725      42665.065     -3.5051154     -3.5908465      0.085731092   -0.012566228   -35.940943     -0.013322657   -35.880831    
        15   15             723.63631     -32576.545      45167.451     -3.5019786     -3.5944987      0.092520082   -0.013132152   -37.040171     -0.014019303   -38.975367    
        16   16             808.99389     -32590.546      40294.308     -3.5034837     -3.6069171      0.10343342    -0.013267025   -32.288956     -0.014261431   -35.481093    
        17   17             874.30048     -32638.843      31334.874     -3.5086757     -3.6204588      0.11178316    -0.013030886   -25.011358     -0.014095106   -27.667184    
        18   18             900.35326     -32704.08       21579.91      -3.5156886     -3.6308027      0.11511412    -0.012511285   -17.501658     -0.01361443    -18.778091    
        19   19             886.54658     -32770.456      13215.488     -3.522824      -3.6361729      0.11334888    -0.011797274   -11.120363     -0.012924499   -11.102076    
        20   20             838.2171      -32826.803      7085.3198     -3.5288814     -3.6360511      0.10716974    -0.010964242   -6.4460268     -0.012115626   -5.481699     
        21   21             772.32494     -32871.906      2918.2868     -3.5337299     -3.632475       0.098745138   -0.010067524   -3.4253705     -0.011253961   -1.526397     
        22   22             708.19945     -32907.392     -41.311619     -3.5375447     -3.6280911      0.090546412   -0.0091430951  -1.3773105     -0.0103861      1.3538357    
        23   23             656.04885     -32934.834     -2362.4061     -3.5404946     -3.6243733      0.083878729   -0.0082154724   0.35035223    -0.0095459051   3.4766458    
        24   24             616.75645     -32955.983     -4158.0538     -3.5427681     -3.6216232      0.078855023   -0.0073052525   1.8780536     -0.008758143    4.9105907    
        25   25             585.46148     -32972.208     -5326.4241     -3.5445124     -3.6193662      0.074853823   -0.0064304685   3.0298079     -0.0080392586   5.6515831    
        26   26             558.30379     -32984.993     -5747.6129     -3.5458868     -3.6172684      0.071381593   -0.0056045038   3.6169253     -0.007397336    5.6949843    
        27   27             536.12918     -32996.037     -5460.9747     -3.547074      -3.6156205      0.068546473   -0.0048338953   3.6587327     -0.0068321002   5.0953592    
        28   28             522.73745     -33006.436     -4889.0429     -3.5481919     -3.6150262      0.066834281   -0.0041186152   3.4423324     -0.0063356478   4.2756922    
        29   29             521.55992     -33016.826     -4534.3842     -3.5493087     -3.6159925      0.066683727   -0.0034555158   3.2713889     -0.0058975071   3.7807651    
        30   30             532.79265     -33027.36      -4538.2254     -3.5504412     -3.6185611      0.068119882   -0.0028419492   3.2326874     -0.0055110809   3.7716062    
        31   31             552.85155     -33038.764     -4650.6022     -3.5516671     -3.6223516      0.0706845     -0.0022768001   3.2016334     -0.005175511    3.962682     
        32   32             573.93273     -33051.612     -4431.3919     -3.5530483     -3.6264281      0.073379822   -0.0017590126   2.9333981     -0.0048922645   3.8563985    
        33   33             587.60153     -33065.936     -3566.342      -3.5545881     -3.6297155      0.075127438   -0.0012847126   2.2695548     -0.0046592621   3.071041     
        34   34             591.12105     -33081.852     -2201.5047     -3.556299      -3.6318765      0.075577424   -0.0008453848   1.3751687     -0.0044664468   1.6858574    
        35   35             587.85325     -33099.35      -823.50882     -3.5581801     -3.6333397      0.075159622   -0.00042989771  0.56618523    -0.0042968454   0.22064785   
        36   36             581.65717     -33118.166      163.79233     -3.5602029     -3.6345703      0.074367426   -2.82868e-05    0.038163503   -0.0041328058  -0.83030226   
        37   37             571.98435     -33137.494      795.53514     -3.5622806     -3.6354113      0.073130712    0.00036594073 -0.29818596    -0.0039618386  -1.4505149    
        38   38             555.79589     -33156.145      1475.5814     -3.5642856     -3.6353465      0.071060948    0.00075691077 -0.75217431    -0.0037767329  -2.0394111    
        39   39             534.09334     -33173.729      2454.4094     -3.5661759     -3.6344621      0.068286181    0.0011500841  -1.4978962     -0.0035707586  -2.8647514    
        40   40             512.58306     -33190.648      3505.9308     -3.5679946     -3.6335306      0.065535997    0.0015543053  -2.3529831     -0.0033344925  -3.7296894    
        41   41             496.83319     -33206.968      4282.548      -3.569749      -3.6332713      0.063522307    0.0019795892  -3.0081775     -0.0030581824  -4.3603684    
        42   42             490.55704     -33222.572      4459.2192     -3.5714265     -3.6341463      0.062719874    0.0024334268  -3.179134      -0.0027349886  -4.4972191    
        43   43             495.72328     -33237.616      3839.7971     -3.5730437     -3.6364241      0.0633804      0.002917432   -2.7530641     -0.0023640172  -3.9190448    
        44   44             511.07211     -33251.697      2440.6272     -3.5745574     -3.6399002      0.065342815    0.0034260709  -1.760624      -0.0019528668  -2.619476     
        45   45             531.60113     -33264.853      576.86917     -3.5759717     -3.6439392      0.067967541    0.0039471147  -0.43154183    -0.001517599   -0.88982575   
        46   46             549.01285     -33276.894     -1117.9504     -3.5772661     -3.6474598      0.070193706    0.0044644707   0.72222237    -0.001079169    0.73181391   
        47   47             557.51698     -33287.714     -2407.962      -3.5784293     -3.6497103      0.071280996    0.0049643695   1.5604265     -0.0006569499   1.9925534    
        48   48             559.56188     -33298.408     -3508.0192     -3.5795788     -3.6511213      0.071542446    0.0054370273   2.3003736     -0.00026572858  3.0372023    
        49   49             559.48873     -33309.89      -4636.3331     -3.5808132     -3.6523463      0.071533093    0.0058739905   3.1151915      8.2512178e-05  4.0597128    
        50   50             555.92715     -33321.584     -5781.712      -3.5820703     -3.653148       0.07107773     0.0062660391   3.9520648      0.00037624165  5.0998335    
        51   51             546.25291     -33332.989     -6646.1719     -3.5832963     -3.6531372      0.069840836    0.0066038349   4.5068857      0.00060390259  5.9735125    
        52   52             532.23421     -33344.408     -7048.7617     -3.5845239     -3.6525724      0.068048484    0.0068815906   4.6614035      0.00075611975  6.4973885    
        53   53             518.81765     -33356.018     -7127.4434     -3.585772      -3.6521051      0.066333117    0.0070984439   4.5933456      0.00082786707  6.7115585    
        54   54             511.0315      -33367.983     -7094.5588     -3.5870582     -3.6523958      0.065337623    0.0072562359   4.522414       0.00081791865  6.7474027    
        55   55             511.41936     -33380.497     -7020.175      -3.5884034     -3.6537906      0.065387213    0.0073568119   4.5163168      0.00072720963  6.6650137    
        56   56             518.63883     -33393.82      -6844.3335     -3.5898356     -3.6561459      0.066310254    0.0074012008   4.5246919      0.00055807777  6.4222233    
        57   57             527.88923     -33407.917     -6326.0622     -3.591351      -3.658844       0.067492959    0.0073902347   4.3470197      0.00031474477  5.8089164    
        58   58             533.97185     -33422.355     -5159.8249     -3.5929031     -3.6611738      0.068270647    0.0073269748   3.7372979      5.8015004e-06  4.5440179    
        59   59             535.71767     -33436.263     -3425.0105     -3.5943982     -3.6628921      0.068493858    0.0072196418   2.7147005     -0.00035250649  2.7339633    
        60   60             536.96571     -33449.75      -1553.367      -3.5958482     -3.6645016      0.068653426    0.0070812931   1.5221822     -0.00073770155  0.8628538    
        61   61             540.51476     -33462.923      219.96886     -3.5972642     -3.6663714      0.069107188    0.0069268057   0.29555539    -0.0011269873  -0.81284604   
        62   62             544.4584      -33475.694      1711.8842     -3.5986371     -3.6682485      0.069611399    0.0067712062  -0.83178271    -0.0015003197  -2.1369749    
        63   63             544.48813     -33488.138      2980.6752     -3.5999748     -3.66959        0.069615201    0.0066280652  -1.8754817     -0.0018422135  -3.1953065    
        64   64             536.85318     -33500.054      4264.6672     -3.6012558     -3.6698948      0.068639038    0.0065097183  -2.9440704     -0.0021406225  -4.2698314    
        65   65             522.57595     -33510.765      5466.8166     -3.6024073     -3.6692209      0.066813632    0.0064286034  -3.8958748     -0.002383501   -5.32761      
        66   66             510.77774     -33521.041      6123.8514     -3.6035119     -3.6688171      0.065305179    0.0063955707  -4.3754822     -0.0025591787  -5.9329494    
        67   67             510.17239     -33532.51       5708.5665     -3.6047449     -3.6699727      0.065227782    0.0064156513  -4.0241961     -0.0026615242  -5.5659615    
        68   68             518.1232      -33544.637      4172.9807     -3.6060485     -3.6722928      0.066244328    0.0064838448  -2.8305098     -0.002696035   -4.1655989    
        69   69             526.72763     -33556.369      2172.5141     -3.6073097     -3.6746541      0.067344442    0.0065851227  -1.2639617     -0.0026803933  -2.3629506    
        70   70             532.13417     -33568.035      259.48601     -3.6085638     -3.6765994      0.068035692    0.0067001988   0.25705151    -0.0026367921  -0.6638638    
        71   71             532.34789     -33579.904     -1376.2653     -3.6098397     -3.6779027      0.068063017    0.0068106016   1.5332537     -0.0025858681   0.81318015   
        72   72             524.42041     -33591.577     -2415.4157     -3.6110945     -3.678144       0.067049454    0.0069010494   2.3155585     -0.0025453286   1.7754224    
        73   73             508.01104     -33602.33      -2685.1686     -3.6122505     -3.677202       0.064951444    0.0069624026   2.4834167     -0.0025265069   2.0532354    
        74   74             489.61134     -33612.05      -2631.5683     -3.6132954     -3.6758944      0.062598962    0.006993035    2.3570253     -0.0025324254   2.0926245    
        75   75             478.42095     -33621.508     -2851.5627     -3.6143121     -3.6754803      0.061168222    0.0069948788   2.3732658     -0.0025632282   2.4683641    
        76   76             476.14866     -33630.874     -3474.3225     -3.615319      -3.6761967      0.060877699    0.0069681144   2.6426445     -0.0026230788   3.2792718    
        77   77             476.44602     -33639.555     -3915.8527     -3.6162522     -3.6771679      0.060915718    0.0069098624   2.780176      -0.0027212857   3.9172981    
        78   78             473.41569     -33647.531     -3454.6976     -3.6171096     -3.6776379      0.060528277    0.0068188632   2.3112446     -0.0028649782   3.6371533    
        79   79             465.82017     -33654.256     -1884.3064     -3.6178326     -3.6773897      0.059557156    0.0067011718   1.1409984     -0.0030502449   2.1845897    
        80   80             458.50235     -33659.002      294.04179     -3.6183427     -3.6769642      0.05862154     0.0065712022  -0.35872492    -0.0032592544   0.026207822  
        81   81             460.90423     -33662.4        2173.0293     -3.618708      -3.6776366      0.058928631    0.0064471397  -1.6175868     -0.0034660105  -1.8826321    
        82   82             477.09062     -33665.814      3247.7291     -3.619075      -3.6800731      0.060998133    0.0063440349  -2.3845467     -0.0036478387  -2.9428805    
        83   83             498.66848     -33669.013      3845.3906     -3.6194189     -3.6831759      0.063756957    0.0062708367  -2.9710654     -0.0037924579  -3.3920395    
        84   84             514.01287     -33671.745      4540.8881     -3.6197125     -3.6854314      0.065718805    0.0062342266  -3.7630212     -0.0038950007  -3.8062749    
        85   85             518.3681      -33674.963      5625.046      -3.6200586     -3.6863342      0.066275639    0.0062432951  -4.8878602     -0.0039510532  -4.5465845    
        86   86             512.10204     -33679.154      6926.2659     -3.620509      -3.6859835      0.065474497    0.0063110581  -6.1189364     -0.0039523448  -5.5429739    
        87   87             498.71097     -33684.271      7912.2514     -3.6210592     -3.6848216      0.063762389    0.0064517043  -6.8762679     -0.003887614   -6.4640756    
        88   88             484.52981     -33690.874      8282.3569     -3.6217689     -3.6837182      0.061949265    0.0066736249  -6.8488923     -0.0037465705  -7.1090745    
        89   89             473.38715     -33698.815      7997.8418     -3.6226226     -3.6831472      0.060524628    0.0069757339  -6.0803811     -0.0035222643  -7.3691386    
        90   90             464.29374     -33706.79       7024.0222     -3.6234799     -3.6828419      0.059361995    0.007348066   -4.7480748     -0.003212349   -7.0156918    
        91   91             456.35397     -33713.641      5638.8433     -3.6242164     -3.6825633      0.058346861    0.0077739592  -3.3718512     -0.0028217814  -6.0079044    
        92   92             450.85625     -33718.982      4113.947      -3.6247906     -3.6824345      0.057643954    0.0082363527  -2.2203475     -0.0023632776  -4.5451817    
        93   93             449.22436     -33721.581      2252.7105     -3.62507       -3.6825053      0.057435309    0.0087210196  -0.91859674    -0.0018549017  -2.6745172    
        94   94             455.32757     -33721.004      48.284248     -3.6250079     -3.6832235      0.058215631    0.0092119983   0.73373398    -0.0013194919  -0.57418155   
        95   95             470.94108     -33718.188     -2207.1565     -3.6247052     -3.6849171      0.060211887    0.0096891705   2.5449115     -0.00078250302  1.4569671    
        96   96             489.17488     -33712.533     -4003.437      -3.6240973     -3.6866405      0.062543158    0.010130623    3.9740988     -0.00026839287  3.0890502    
        97   97             503.24119     -33705.06      -4914.9436     -3.623294      -3.6876356      0.064341598    0.010519257    4.5892924      0.00020336144  4.0186324    
        98   98             511.67141     -33697.917     -4871.5255     -3.6225261     -3.6879455      0.065419439    0.010848039    4.4211836      0.0006219121   4.084276     
        99   99             512.6006      -33692.423     -3774.9288     -3.6219355     -3.6874738      0.065538239    0.011119565    3.4645334      0.00098694589  3.1257323    
       100   100            501.96377     -33688.037     -1652.1481     -3.621464      -3.6856423      0.064178274    0.011346056    1.743095       0.0013105497   1.1814427    
       101   101            483.02019     -33684.034      920.86002     -3.6210337     -3.6827899      0.061756254    0.011548983   -0.32245999     0.0016166495  -1.165668     
       102   102            469.30013     -33681.417      2948.1607     -3.6207523     -3.6807544      0.060002084    0.011753842   -2.0434184      0.0019338588  -2.9055903    
       103   103            470.82789     -33680.187      3636.5935     -3.6206201     -3.6808175      0.060197416    0.011981702   -2.8242261      0.0022832065  -3.2876205    
       104   104            485.03441     -33678.92       2993.6535     -3.6204839     -3.6824977      0.062013781    0.012241946   -2.5716383      0.0026690912  -2.4166939    
       105   105            502.94123     -33676.057      1779.6853     -3.6201762     -3.6844794      0.064303247    0.012531223   -1.798558       0.0030806663  -1.0824913    
       106   106            518.28578     -33672.151      701.74717     -3.6197562     -3.6860213      0.066265114    0.012839818   -1.0648842      0.0035015283   0.058983084  
       107   107            527.53917     -33667.887      19.024011     -3.6192978     -3.686746       0.067448202    0.013158576   -0.51826392     0.0039177303   0.70766282   
       108   108            528.41242     -33663.83      -263.33135     -3.6188618     -3.6864216      0.06755985     0.013480707   -0.13569945     0.0043214241   0.82577178   
       109   109            521.03362     -33660.006     -312.6322      -3.6184507     -3.6850671      0.066616439    0.013801491    0.13949253     0.0047112886   0.64704274   
       110   110            509.16918     -33656.823     -438.54003     -3.6181085     -3.683208       0.065099518    0.014117565    0.50210123     0.0050896378   0.5113462    
       111   111            495.90887     -33654.215     -751.76681     -3.6178281     -3.6812322      0.063404128    0.01442451     1.0238629      0.0054582446   0.5433986    
       112   112            481.15407     -33651.083     -1126.6202     -3.6174914     -3.6790091      0.061517663    0.014715976    1.5589157      0.0058168162   0.68464301   
       113   113            467.77235     -33646.723     -1688.1847     -3.6170227     -3.6768294      0.059806751    0.014985492    2.1712232      0.0061637248   1.0679301    
       114   114            462.60053     -33641.824     -2527.3752     -3.616496      -3.6756415      0.059145511    0.015225679    2.9192887      0.0064943858   1.7689213    
       115   115            468.2898      -33636.414     -3491.3552     -3.6159145     -3.6757874      0.05987291     0.015427532    3.7291574      0.0068003473   2.5957195    
       116   116            480.30992     -33630.351     -4422.6118     -3.6152627     -3.6766725      0.061409734    0.015581349    4.5236702      0.0070716733   3.3548914    
       117   117            491.40812     -33623.518     -5046.2749     -3.6145282     -3.6773569      0.062828687    0.015677696    5.0789363      0.0072993344   3.808467     
       118   118            497.7146      -33616.692     -5108.2129     -3.6137943     -3.6774293      0.063634999    0.015710189    5.1466281      0.0074781315   3.7824429    
       119   119            499.04489     -33610.59      -4670.9183     -3.6131384     -3.6769435      0.063805083    0.015678548    4.7111362      0.0076088115   3.4025262    
       120   120            495.98393     -33604.974     -4006.707      -3.6125347     -3.6759485      0.063413726    0.015588744    3.979808       0.0076964731   2.932883     
       121   121            490.70053     -33599.446     -3460.1181     -3.6119405     -3.6746787      0.06273822     0.015450367    3.2919931      0.0077472765   2.639421     
       122   122            487.34248     -33594.13      -3255.9467     -3.6113689     -3.6736778      0.062308878    0.01527238     2.8924843      0.0077651582   2.674721     
       123   123            488.53864     -33589.124     -3405.9096     -3.6108308     -3.6732926      0.062461813    0.015060083    2.8259871      0.0077499711   3.0141829    
       124   124            493.40633     -33584.331     -3693.3222     -3.6103156     -3.6733997      0.063084168    0.0148146      2.8876534      0.0076978245   3.4832851    
       125   125            499.51632     -33579.605     -3857.3993     -3.6098075     -3.6736729      0.063865356    0.014535459    2.7964922      0.0076032679   3.901811     
       126   126            506.38094     -33574.926     -3886.6616     -3.6093046     -3.6740476      0.064743029    0.014224086    2.5602186      0.0074615262   4.2281067    
       127   127            516.07782     -33570.979     -3954.2954     -3.6088802     -3.6748631      0.065982817    0.013883696    2.4257957      0.007269009    4.5060833    
       128   128            528.36212     -33568.289     -3997.081      -3.6085911     -3.6761445      0.067553419    0.013516216    2.4199135      0.0070227641   4.6011578    
       129   129            538.72999     -33566.436     -3626.1442     -3.6083919     -3.6772709      0.068878998    0.013121978    2.2353109      0.0067221271   4.1558416    
       130   130            544.28735     -33564.806     -2687.4835     -3.6082167     -3.6778062      0.06958953     0.012703523    1.7013236      0.0063730824   3.0802518    
       131   131            547.86117     -33563.518     -1584.8268     -3.6080782     -3.6781246      0.070046458    0.012267684    1.07099        0.0059892853   1.817756     
       132   132            553.60742     -33563.089     -762.53233     -3.6080321     -3.6788133      0.070781141    0.011822411    0.62466966     0.0055865386   0.85534469   
       133   133            561.34097     -33563.842     -365.77584     -3.608113      -3.6798829      0.07176991     0.011373307    0.41051551     0.0051768088   0.39828784   
       134   134            567.1522      -33565.987     -174.22283     -3.6083436     -3.6808565      0.072512902    0.010923063    0.27956159     0.0047657641   0.21357799   
       135   135            567.23981     -33569.594      189.55014     -3.6087314     -3.6812555      0.072524103    0.010473322    0.0048619537   0.0043556908  -0.12838895   
       136   136            560.2269      -33574.333      897.664       -3.6092408     -3.6808683      0.071627471    0.010027466   -0.50609685     0.0039507619  -0.84055764   
       137   137            548.6865      -33579.369      1852.955      -3.6097822     -3.6799341      0.070151981    0.0095917225  -1.1950274      0.003559599   -1.818449     
       138   138            539.21153     -33585.073      2596.8956     -3.6103954     -3.679336       0.068940565    0.0091744178  -1.7758947      0.0031939457  -2.5531262    
       139   139            534.5046      -33592.059      2766.1705     -3.6111464     -3.6794852      0.068338763    0.0087824569  -1.9206264      0.0028624589  -2.7325865    
       140   140            530.26434     -33599.257      2620.3102     -3.6119202     -3.6797168      0.067796626    0.0084173488  -1.8017963      0.0025669722  -2.6085598    
       141   141            524.50441     -33606.791      2352.3063     -3.61273       -3.6797902      0.067060194    0.0080773754  -1.592657       0.0023056272  -2.3489023    
       142   142            518.77781     -33614.598      1869.5415     -3.6135693     -3.6798974      0.066328023    0.0077597381  -1.2106449      0.0020749478  -1.9048788    
       143   143            515.54034     -33622.672      1136.7248     -3.6144372     -3.6803513      0.065914098    0.0074595683  -0.62972589     0.0018692699  -1.2585066    
       144   144            516.43895     -33631.352      199.22249     -3.6153704     -3.6813994      0.066028989    0.0071696344   0.096523237    0.0016805471  -0.42788873   
       145   145            519.24463     -33640.807     -784.68078     -3.6163868     -3.6827745      0.066387707    0.0068810177   0.84978329     0.0014985925   0.45837471   
       146   146            517.3158      -33650.727     -1440.0955     -3.6174531     -3.6835942      0.066141098    0.0065845644   1.3174714      0.0013126501   1.0864546    
       147   147            505.6368      -33659.556     -1379.8821     -3.6184022     -3.6830501      0.064647888    0.0062746746   1.1993102      0.001115182    1.1018586    
       148   148            489.01349     -33667.371     -895.58077     -3.6192424     -3.6817649      0.062522524    0.005952898    0.69806579     0.00090610342  0.78426428   
       149   149            475.90168     -33674.769     -366.96217     -3.6200377     -3.6808838      0.060846121    0.0056254028   0.097678529    0.00068933845  0.47776671   
       150   150            468.03889     -33681.269      215.48        -3.6207364     -3.6805772      0.059840829    0.0052994915  -0.57770517     0.00046863937  0.14058199   
       151   151            462.64276     -33686.064      929.18852     -3.6212519     -3.6804028      0.05915091     0.0049832962  -1.3291015      0.00024808976 -0.34371288   
       152   152            459.63294     -33689.223      1681.6726     -3.6215915     -3.6803576      0.058766091    0.0046857817  -1.9967653      3.3498237e-05 -0.9668528    
       153   153            461.15669     -33691.437      2294.8488     -3.6218295     -3.6807904      0.05896091     0.0044148124  -2.4246764     -0.00016771887 -1.5845028    
       154   154            467.63576     -33692.783      2657.9752     -3.6219742     -3.6817635      0.059789287    0.0041752883  -2.6113098     -0.00034828331 -2.0110584    
       155   155            478.02729     -33693.674      2673.685      -3.6220699     -3.6831878      0.06111789     0.0039691616  -2.5404085     -0.00050327435 -2.0979279    
       156   156            489.46168     -33694.561      2465.6358     -3.6221653     -3.6847451      0.062579827    0.0037952736  -2.3058361     -0.00063188166 -1.9651632    
       157   157            497.02068     -33695.251      2403.1611     -3.6222395     -3.6857858      0.063546279    0.0036505151  -2.171166      -0.00073592664 -1.983987     
       158   158            498.70524     -33695.322      2501.7216     -3.6222471     -3.6860088      0.063761657    0.0035330121  -2.1957916     -0.00081539493 -2.1151113    
       159   159            498.88849     -33695.477      2406.7617     -3.6222638     -3.6860488      0.063785086    0.0034428282  -2.1766229     -0.00086892265 -1.9456186    
       160   160            502.12238     -33696.304      1995.1555     -3.6223527     -3.6865512      0.064198553    0.0033795068  -1.9775412     -0.0008987476  -1.4130242    
       161   161            506.87526     -33697.707      1499.3684     -3.6225035     -3.6873098      0.06480623     0.0033404405  -1.7185505     -0.00091142797 -0.80201074   
       162   162            507.71791     -33699.096      1415.4762     -3.6226529     -3.6875668      0.064913966    0.0033223287  -1.7522443     -0.00091440523 -0.61440765   
       163   163            501.56589     -33700.426      2020.4536     -3.6227958     -3.6869232      0.064127403    0.0033254174  -2.2191462     -0.00090999667 -1.1927294    
       164   164            490.21323     -33701.445      3007.4723     -3.6229053     -3.6855812      0.062675916    0.0033551611  -2.8242682     -0.00089133666 -2.3021273    
       165   165            480.07455     -33702.455      3757.7394     -3.6230139     -3.6843935      0.061379641    0.0034186428  -3.1731064     -0.00084525101 -3.268562     
       166   166            477.80429     -33703.718      3827.5463     -3.6231497     -3.6842391      0.061089378    0.0035198251  -3.0166818     -0.0007603613  -3.578928     
       167   167            485.55405     -33705.074      2937.4366     -3.6232955     -3.6853757      0.06208022     0.0036565805  -2.1725253     -0.00063320833 -2.9274014    
       168   168            499.63331     -33706.101      1383.5664     -3.6234059     -3.6872862      0.063880315    0.0038185304  -0.90409462    -0.00047186446 -1.5529364    
       169   169            513.69704     -33706.393     -125.41743     -3.6234373     -3.6891157      0.065678425    0.0039902565   0.24382927    -0.00029301054 -0.12752552   
       170   170            522.40763     -33706.676     -1317.9928     -3.6234676     -3.6902597      0.066792112    0.0041578805   1.1097339     -0.00011384045  1.0463222    
       171   171            521.39361     -33706.805     -1999.0923     -3.6234815     -3.690144       0.066662464    0.0043110011   1.5793981      5.1567053e-05  1.7467855    
       172   172            510.73228     -33707.078     -1998.8552     -3.6235109     -3.6888103      0.065299367    0.0044440529   1.5219621      0.00019489545  1.8108769    
       173   173            495.12262     -33707.806     -1520.1967     -3.6235891     -3.6868927      0.063303603    0.0045578602   1.096235       0.00031551909  1.4248718    
       174   174            479.80396     -33708.693     -891.27175     -3.6236845     -3.6850295      0.061345045    0.004657686    0.55568929     0.00041822378  0.89558994   
       175   175            468.56987     -33709.379     -348.16994     -3.6237583     -3.683667       0.059908718    0.004750147    0.074043322    0.00050948838  0.45167312   
       176   176            463.30799     -33709.572      52.160598     -3.623779      -3.683015       0.059235963    0.0048411086  -0.30808135     0.00059472598  0.14675499   
       177   177            464.21393     -33709.103      297.91864     -3.6237286     -3.6830804      0.059351791    0.0049351987  -0.5644046      0.00067764511 -0.027044436  
       178   178            470.62023     -33707.787      398.70126     -3.6235871     -3.683758       0.060170865    0.0050354984  -0.70165096     0.00076035463 -0.075369209  
       179   179            482.12929     -33705.797      300.83193     -3.6233732     -3.6850155      0.061642349    0.0051436325  -0.71535274     0.00084344111  0.091522908  
       180   180            497.20567     -33703.591      89.266576     -3.6231361     -3.686706       0.06356993     0.0052597236  -0.67756066     0.00092489762  0.40429205   
       181   181            511.6321      -33701.161     -50.075581     -3.6228748     -3.6882892      0.065414413    0.0053832721  -0.67392161     0.0010009728   0.62991967   
       182   182            521.23559     -33698.679     -83.864429     -3.622608      -3.6892503      0.066642261    0.0055141947  -0.64272642     0.0010689858   0.63822135   
       183   183            524.54836     -33696.464     -31.056128     -3.6223698     -3.6894357      0.067065814    0.0056520758  -0.56323684     0.0011288887   0.4330933    
       184   184            522.21651     -33694.896     -21.197515     -3.6222014     -3.688969       0.066767677    0.0057959184  -0.42886217     0.0011832045   0.23677594   
       185   185            515.05595     -33693.865     -80.764509     -3.6220905     -3.6879427      0.065852167    0.0059440666  -0.35844107     0.0012343349   0.23521767   
       186   186            504.29787     -33692.991     -135.31099     -3.6219965     -3.6864732      0.0644767      0.0060956483  -0.43385353     0.0012823198   0.3997727    
       187   187            493.1509      -33692.074     -306.20042     -3.6218979     -3.6849494      0.06305151     0.0062515635  -0.44971861     0.0013251955   0.73074474   
       188   188            485.84363     -33691.248     -710.15037     -3.6218092     -3.6839264      0.062117243    0.0064119855  -0.18882163     0.0013590024   1.1957845    
       189   189            483.61342     -33690.402     -1267.3275     -3.6217182     -3.6835503      0.061832101    0.0065737313   0.35645892     0.0013781862   1.6388907    
       190   190            484.39964     -33688.814     -1830.9669     -3.6215475     -3.6834802      0.061932624    0.0067301848   1.0538117      0.0013774888   1.9314352    
       191   191            487.94781     -33686.511     -2327.4998     -3.6212999     -3.6836862      0.062386273    0.0068729196   1.7709822      0.0013535005   2.0708598    
       192   192            495.90219     -33684.216     -2797.4912     -3.6210532     -3.6844565      0.063403275    0.0069933137   2.4484472      0.0013046806   2.186075     
       193   193            506.75264     -33682.134     -3234.3867     -3.6208294     -3.68562        0.064790552    0.0070832754   3.0033133      0.0012297911   2.3586643    
       194   194            516.21503     -33680.109     -3480.4274     -3.6206117     -3.686612       0.06600036     0.0071362489   3.2791245      0.0011269115   2.4917411    
       195   195            521.70611     -33678.467     -3451.852      -3.6204352     -3.6871376      0.066702419    0.0071491083   3.239258       0.00099461236  2.4840136    
       196   196            523.11224     -33677.565     -3163.137      -3.6203382     -3.6872204      0.066882199    0.0071225833   2.9438431      0.00083317568  2.2954946    
       197   197            520.76229     -33677.396     -2544.489      -3.6203201     -3.6869019      0.066581747    0.0070605052   2.3669133      0.0006450649   1.8323746    
       198   198            514.72377     -33677.573     -1529.3937     -3.6203391     -3.6861488      0.065809697    0.0069700995   1.4434306      0.00043603918  1.0488939    
       199   199            506.47411     -33677.505     -267.29754     -3.6203318     -3.6850868      0.064754941    0.0068627483   0.27127796     0.0002156776   0.098748586  
       200   200            500.35109     -33677.213      862.92299     -3.6203004     -3.6842725      0.063972086    0.00675277    -0.82669203    -4.5039594e-06 -0.70574012   
       201   201            500.40743     -33677.077      1546.426      -3.6202857     -3.684265       0.063979289    0.006653484   -1.5670579     -0.00021482804 -1.118057     
       202   202            506.64845     -33677.095      1686.6201     -3.6202877     -3.6850649      0.064777231    0.0065737862  -1.8104692     -0.00041040546 -1.111488     
       203   203            516.17649     -33677.442      1405.7088     -3.6203251     -3.6863205      0.065995432    0.006516497   -1.5689513     -0.00059141775 -0.87645277   
       204   204            524.87852     -33678.339      1006.9128     -3.6204214     -3.6875295      0.067108026    0.0064785509  -1.0931916     -0.00076078969 -0.67749327   
       205   205            529.32052     -33679.484      718.34795     -3.6205445     -3.6882205      0.067675954    0.0064540701  -0.67164574    -0.00092099136 -0.61042467   
       206   206            530.30462     -33681.33       492.24348     -3.620743      -3.6885447      0.067801777    0.0064378713  -0.3561245     -0.0010728913  -0.53798855   
       207   207            530.30514     -33684.341      149.30289     -3.6210667     -3.6888685      0.067801842    0.0064260872  -0.0040109312  -0.0012174158  -0.29916791   
       208   208            529.42721     -33688.334     -399.34683     -3.6214959     -3.6891855      0.067689595    0.0064144321   0.45066193    -0.0013574819   0.19243363   
       209   209            526.34906     -33693.24      -1031.5111     -3.6220233     -3.6893193      0.06729604     0.0063974062   0.91282209    -0.0014990194   0.82524951   
       210   210            519.67064     -33698.811     -1408.5658     -3.6226222     -3.6890644      0.066442176    0.0063694529   1.1472577     -0.001649613    1.2546897    
       211   211            509.98787     -33704.447     -1412.7427     -3.623228      -3.6884322      0.06520419     0.0063278029   1.0921832     -0.0018143579   1.3253768    
       212   212            501.2848      -33710.236     -1307.0837     -3.6238504     -3.6879419      0.064091465    0.0062732037   0.95512516    -0.0019940135   1.2685089    
       213   213            496.58892     -33716.295     -1186.8311     -3.6245018     -3.6879928      0.063491076    0.0062073892   0.78288206    -0.0021878048   1.2140946    
       214   214            494.24039     -33722.166     -863.99142     -3.6251329     -3.6883237      0.063190805    0.0061325077   0.42508959    -0.0023949905   1.0025449    
       215   215            491.82328     -33726.995     -271.87593     -3.625652      -3.6885338      0.062881768    0.0060529345  -0.10079473    -0.0026129519   0.49573976   
       216   216            491.23337     -33731.224      378.43801     -3.6261066     -3.6889129      0.062806346    0.0059750453  -0.56771663    -0.002835556   -0.17682286   
       217   217            494.54218     -33735.375      849.803       -3.6265528     -3.6897822      0.063229391    0.0059044629  -0.81443644    -0.0030547307  -0.76391714   
       218   218            498.83125     -33739.393      1154.8609     -3.6269848     -3.6907626      0.063777768    0.005844118   -0.92392258    -0.0032634827  -1.1913598    
       219   219            498.75053     -33742.92       1630.6036     -3.6273639     -3.6911314      0.063767447    0.0057952681  -1.2387451     -0.0034567749  -1.6799086    
       220   220            491.88367     -33745.82       2493.5535     -3.6276756     -3.6905651      0.062889489    0.0057616386  -1.9578949     -0.0036288747  -2.4017967    
       221   221            481.23025     -33747.995      3450.744      -3.6279095     -3.6894369      0.061527403    0.0057518062  -2.7944969     -0.0037713006  -3.1560215    
       222   222            473.6402      -33749.974      3945.0214     -3.6281223     -3.6886792      0.060556981    0.0057757151  -3.2209168     -0.0038752365  -3.5266823    
       223   223            473.57482     -33752.197      3554.8436     -3.6283612     -3.6889098      0.060548622    0.0058383165  -2.8756736     -0.0039364902  -3.1628127    
       224   224            479.02287     -33754.189      2465.1604     -3.6285753     -3.6898204      0.06124518     0.0059352446  -1.9319916     -0.003959649   -2.215397     
       225   225            485.30773     -33755.491      1258.729      -3.6287153     -3.6907641      0.062048726    0.0060549499  -0.89565335    -0.0039562295  -1.1780247    
       226   226            489.62914     -33756.268      364.2555      -3.6287988     -3.6914         0.062601237    0.0061848258  -0.12991456    -0.0039387558  -0.41280203   
       227   227            491.17871     -33756.636     -71.71022      -3.6288384     -3.6916378      0.062799357    0.0063155897   0.25622486    -0.0039164366  -0.051364361  
       228   228            490.82197     -33756.614     -172.33076     -3.628836      -3.6915898      0.062753746    0.0064425814   0.36825866    -0.0038936125   0.0095430514 
       229   229            491.2733      -33756.361     -161.56359     -3.6288088     -3.6916203      0.062811451    0.0065644701   0.36123427    -0.003871013   -0.012823332  
       230   230            494.77935     -33756.344     -176.38498     -3.628807      -3.6920667      0.063259714    0.0066813681   0.3009773     -0.0038483694   0.048115047  
       231   231            499.80184     -33756.309     -169.50529     -3.6288033     -3.6927051      0.063901862    0.0067940299   0.15056506    -0.0038264093   0.16344241   
       232   232            503.53054     -33756.039      12.590188     -3.6287742     -3.6931528      0.064378593    0.0069042952  -0.11150615    -0.0038065066   0.10215773   
       233   233            504.73048     -33756.006      485.18882     -3.6287706     -3.6933026      0.064532011    0.0070153439  -0.4753398     -0.003787918   -0.35419797   
       234   234            502.25035     -33755.976      1138.7551     -3.6287674     -3.6929823      0.064214914    0.0071315705  -0.84321406    -0.0037651817  -1.1303051    
       235   235            496.89235     -33755.898      1749.3624     -3.628759      -3.6922889      0.063529871    0.0072573987  -1.1717307     -0.0037290407  -1.8719638    
       236   236            491.02041     -33756.169      2402.8617     -3.6287882     -3.6915673      0.062779117    0.0073967568  -1.6609758     -0.0036706936  -2.4997346    
       237   237            485.4691      -33756.2        2864.7033     -3.6287915     -3.6908609      0.062069358    0.0075555009  -2.1536397     -0.0035827397  -2.7757739    
       238   238            482.58705     -33755.744      2771.5685     -3.6287425     -3.6904434      0.061700875    0.0077395058  -2.2661223     -0.003462016   -2.4871336    
       239   239            486.61337     -33755.216      2172.1597     -3.6286857     -3.6909013      0.062215658    0.007950023   -1.8807184     -0.0033121277  -1.8432393    
       240   240            497.02566     -33754.705      1128.0291     -3.6286308     -3.6921777      0.063546916    0.0081822705  -1.0266361     -0.0031409163  -0.91064355   
       241   241            506.62371     -33753.198     -8.1706353     -3.6284688     -3.6932429      0.064774068    0.008425804   -0.025344713   -0.0029596519   0.041674663  
       242   242            509.90641     -33750.619     -705.04714     -3.6281915     -3.6933853      0.065193775    0.0086684301   0.6696009     -0.0027797991   0.55866756   
       243   243            507.34414     -33747.835     -845.08642     -3.6278922     -3.6927584      0.064866178    0.008901716    0.94616367    -0.0026075564   0.54566447   
       244   244            502.10765     -33744.95      -595.04185     -3.6275821     -3.6917788      0.06419667     0.0091223405   0.91409714    -0.0024427359   0.17451564   
       245   245            498.66238     -33742.055     -271.44918     -3.627271      -3.6910271      0.063756178    0.0093307462   0.77644175    -0.0022808475  -0.22892334   
       246   246            500.27524     -33739.587     -69.462405     -3.6270056     -3.690968       0.063962388    0.0095286591   0.64166259    -0.0021170303  -0.45849795   
       247   247            504.02062     -33737.399      221.74927     -3.6267704     -3.6912116      0.064441251    0.0097177644   0.32601503    -0.0019485326  -0.70040706   
       248   248            504.0718      -33734.203      776.44629     -3.6264268     -3.6908746      0.064447795    0.0099019424  -0.24972758    -0.0017724655  -1.15016      
       249   249            503.20807     -33730.323      1151.5064     -3.6260097     -3.6903471      0.064337364    0.010088226   -0.65605147    -0.0015834491  -1.4411707    
       250   250            509.85698     -33727.241      877.82382     -3.6256784     -3.6908659      0.065187456    0.010281556   -0.5073473     -0.0013780363  -1.1432147    
       251   251            522.27444     -33724.941      42.076958     -3.6254312     -3.6922062      0.066775083    0.010480086    0.061677756   -0.0011598903  -0.27368268   
       252   252            528.65656     -33721.351     -679.50652     -3.6250452     -3.6926363      0.067591065    0.010676852    0.47015301    -0.00093955333  0.57516047   
       253   253            526.51171     -33716.814     -892.33869     -3.6245575     -3.6918744      0.067316836    0.010866873    0.54972992    -0.00072727948  0.87524067   
       254   254            524.62935     -33713.444     -961.89017     -3.6241952     -3.6912714      0.067076168    0.011049204    0.71185793    -0.00052665846  0.8461612    
       255   255            526.57963     -33711.136     -1264.9861     -3.6239471     -3.6912726      0.06732552     0.011221899    1.2409123     -0.00033728869  0.85391906   
       256   256            528.35063     -33708.998     -1679.1547     -3.6237173     -3.6912693      0.067551951    0.011378532    1.8999587     -0.00015921414  0.91908133   
       257   257            527.10248     -33707.018     -1868.2748     -3.6235045     -3.6908968      0.067392369    0.011511115    2.2604576      6.8286037e-06  0.88602344   
       258   258            522.78142     -33706.114     -1788.9838     -3.6234072     -3.6902471      0.066839902    0.011615352    2.2359998      0.00016129566  0.76930183   
       259   259            513.83043     -33705.57      -1425.837      -3.6233488     -3.6890443      0.065695479    0.011691679    1.8672236      0.00030565513  0.5199541    
       260   260            501.91603     -33704.761     -1001.3065     -3.6232618     -3.687434       0.06417217     0.01174475     1.4374943      0.00044297544  0.2474332    
       261   261            494.64976     -33704.464     -853.30273     -3.6232299     -3.6864731      0.063243145    0.011779946    1.3111606      0.00057659259  0.16148084   
       262   262            496.34957     -33704.916     -1198.7081     -3.6232785     -3.686739       0.063460474    0.011798907    1.671574       0.0007075675   0.43059057   
       263   263            502.36462     -33705.548     -1807.2115     -3.6233464     -3.687576       0.064229525    0.011797299    2.2720115      0.00083265346  0.88946151   
       264   264            505.21615     -33705.607     -2099.8897     -3.6233528     -3.6879469      0.064594105    0.011767873    2.552496       0.00094631853  1.1150632    
       265   265            503.38541     -33705.478     -1970.0271     -3.6233388     -3.6876989      0.064360037    0.011707342    2.4017272      0.0010458852   1.0475555    
       266   266            500.71384     -33705.615     -1635.3647     -3.6233536     -3.6873721      0.064018465    0.011617719    2.0292343      0.0011322435   0.8512257    
       267   267            501.25797     -33706.121     -1318.6361     -3.623408      -3.687496       0.064088034    0.01150373     1.6355967      0.0012078421   0.71227259   
       268   268            505.7712      -33707.233     -1255.5119     -3.6235276     -3.6881926      0.064665071    0.011370334    1.4579009      0.0012744217   0.79339268   
       269   269            510.04427     -33708.614     -1390.0334     -3.623676      -3.6888874      0.065211402    0.011219815    1.4903904      0.0013310457   0.9928948    
       270   270            509.58844     -33709.969     -1280.1206     -3.6238217     -3.6889748      0.065153122    0.011051876    1.3736069      0.0013753469   0.90283752   
       271   271            504.2245      -33711.422     -809.4063      -3.6239778     -3.6884451      0.064467319    0.010868046    1.0047393      0.0014084823   0.42714914   
       272   272            497.85174     -33712.945     -348.65243     -3.6241416     -3.6877942      0.063652534    0.010672933    0.63452116     0.0014362783  -0.026031661  
       273   273            494.82914     -33715.129     -216.68912     -3.6243764     -3.6876425      0.063266081    0.010471132    0.50483707     0.0014642572  -0.13548721   
       274   274            493.91231     -33717.821     -318.92803     -3.6246658     -3.6878147      0.063148859    0.010264269    0.57249108     0.0014937446  -0.025723777  
       275   275            489.90484     -33720.242     -213.31161     -3.6249261     -3.6875625      0.062636487    0.010051549    0.48228908     0.0015234023  -0.10960085   
       276   276            481.57213     -33721.904      167.15656     -3.6251047     -3.6866758      0.061571113    0.0098341087   0.12072006     0.0015542459  -0.39202566   
       277   277            474.23075     -33723.114      520.68274     -3.6252347     -3.6858672      0.060632486    0.0096163935  -0.28714851     0.0015896907  -0.58204915   
       278   278            474.58363     -33724.172      484.44608     -3.6253485     -3.6860261      0.060677603    0.0094033848  -0.3974015      0.0016320139  -0.40327765   
       279   279            484.26497     -33725.481     -246.29857     -3.6254892     -3.6874046      0.061915405    0.0091964      0.1078993      0.0016790139   0.34677166   
       280   280            497.61882     -33726.641     -1453.038      -3.6256139     -3.6892366      0.063622754    0.0089892395   1.1004074      0.0017215824   1.427427     
       281   281            507.4779      -33727.728     -2520.8808     -3.6257307     -3.690614       0.06488328     0.0087698024   2.0611764      0.0017466573   2.3152807    
       282   282            510.16812     -33729.204     -2926.6321     -3.6258895     -3.6911167      0.065227237    0.0085264538   2.5090098      0.0017435831   2.5940763    
       283   283            505.66725     -33730.965     -2501.7945     -3.6260788     -3.6907306      0.06465178     0.0082538888   2.2955836      0.0017091406   2.1195653    
       284   284            497.99614     -33732.569     -1548.395      -3.6262512     -3.6899222      0.063670995    0.0079548961   1.6489469      0.0016492487   1.1782963    
       285   285            494.12357     -33734.222     -494.63705     -3.6264289     -3.6896047      0.06317587     0.0076375216   0.8535904      0.0015754395   0.20970257   
       286   286            498.32825     -33735.989      449.53277     -3.6266189     -3.6903323      0.063713457    0.0073115657   0.016817592    0.0014995049  -0.54258122   
       287   287            508.99819     -33737.817      1223.6245     -3.6268154     -3.691893       0.065077656    0.0069872611  -0.83007403     0.0014305486  -1.0069774    
       288   288            520.60122     -33739.608      1871.8286     -3.6270079     -3.693569       0.066561154    0.0066748877  -1.6719606      0.0013741391  -1.2688379    
       289   289            528.93099     -33741.394      2430.3194     -3.6271998     -3.694826       0.067626152    0.0063845879  -2.4290034      0.0013333647  -1.4649286    
       290   290            534.16885     -33744.148      2818.6616     -3.6274959     -3.6957917      0.068295835    0.0061254013  -2.902092       0.0013105009  -1.6557146    
       291   291            536.0509      -33748.694      2987.5797     -3.6279846     -3.6965211      0.068536464    0.0059028636  -3.0233766      0.0013077464  -1.8191893    
       292   292            531.11181     -33754.315      3113.5309     -3.6285889     -3.6964939      0.06790498     0.0057182145  -2.9823386      0.0013269595  -2.0625705    
       293   293            518.60068     -33760.608      3221.4043     -3.6292654     -3.6955708      0.066305376    0.0055707252  -2.8641834      0.0013709543  -2.3591343    
       294   294            502.68793     -33767.55       3305.7946     -3.6300117     -3.6942825      0.064270861    0.0054587436  -2.6962117      0.0014431745  -2.6823341    
       295   295            486.61578     -33774.948      3235.4166     -3.6308069     -3.6930229      0.062215966    0.0053800305  -2.4032302      0.0015473716  -2.8935337    
       296   296            470.62769     -33781.129      2937.5894     -3.6314714     -3.6916432      0.060171818    0.0053308526  -2.0009355      0.001685933   -2.8404453    
       297   297            458.45865     -33786.046      2385.2863     -3.6319999     -3.6906159      0.058615953    0.0053061785  -1.5436301      0.0018580519  -2.3979737    
       298   298            454.51611     -33790.281      1469.7565     -3.6324552     -3.690567       0.058111882    0.0053003407  -0.95606033     0.0020582309  -1.4508447    
       299   299            456.7652      -33793.064      260.44534     -3.6327544     -3.6911538      0.058399438    0.0053061255  -0.23468613     0.002274906   -0.124704     
       300   300            461.08231     -33794.27      -880.06925     -3.6328841     -3.6918355      0.0589514      0.0053147344   0.4192504      0.0024919837   1.1482359    
       301   301            464.64801     -33794.405     -1689.4446     -3.6328986     -3.6923058      0.059407291    0.0053182297   0.81654508     0.0026940788   2.1077908    
       302   302            465.83214     -33793.253     -2040.338      -3.6327747     -3.6923334      0.059558686    0.0053118228   0.88817332     0.0028696598   2.6099702    
       303   303            467.10319     -33791.3       -2207.8585     -3.6325647     -3.6922859      0.059721196    0.0052946973   0.88449558     0.0030127786   2.8800941    
       304   304            471.94209     -33789.289     -2454.2203     -3.6323486     -3.6926884      0.060339871    0.0052669541   0.98552197     0.0031203252   3.1973486    
       305   305            478.68869     -33787.11      -2711.6522     -3.6321143     -3.6933168      0.061202453    0.0052274253   1.1116739      0.003188639    3.5221095    
       306   306            482.56817     -33784.346     -2576.51       -3.6318172     -3.6935156      0.061698461    0.0051746451   0.92617935     0.0032139921   3.4803819    
       307   307            481.6628      -33781.201     -1687.4681     -3.6314791     -3.6930618      0.061582706    0.005110934    0.13880972     0.0031971164   2.7336925    
       308   308            477.64437     -33777.545     -292.30671     -3.6310861     -3.692155       0.061068932    0.005045895   -0.95668672     0.0031472736   1.4204554    
       309   309            474.95325     -33773.266      960.7891      -3.6306261     -3.691351       0.06072486     0.0049928092  -1.7439223      0.0030805293   0.045595375  
       310   310            478.29185     -33768.903      1567.5374     -3.6301571     -3.6913088      0.061151715    0.0049611476  -1.8770636      0.0030136024  -0.86926019   
       311   311            487.01948     -33764.742      1560.5237     -3.6297097     -3.6919773      0.062267581    0.0049524058  -1.4851397      0.0029575543  -1.2503327    
       312   312            494.47283     -33760.402      1480.7165     -3.6292432     -3.6924638      0.063220525    0.0049617133  -1.1020961      0.0029169312  -1.4832741    
       313   313            495.33838     -33755.371      1730.7443     -3.6287024     -3.6920336      0.063331189    0.0049843352  -1.0783145      0.0028944656  -1.9046146    
       314   314            492.92761     -33750.274      2008.0108     -3.6281544     -3.6911774      0.063022961    0.0050199153  -1.1591024      0.0028951544  -2.2744721    
       315   315            494.35636     -33746.293      1813.3641     -3.6277265     -3.6909321      0.063205633    0.005069367   -0.94292004     0.0029233495  -2.1564462    
       316   316            499.56424     -33743.216      1157.6967     -3.6273957     -3.6912672      0.063871484    0.0051300027  -0.45909859     0.0029774857  -1.5387715    
       317   317            502.19183     -33740.144      518.66466     -3.6270655     -3.6912729      0.064207433    0.0051959046  -0.12056437     0.0030499664  -0.81167209   
       318   318            499.26901     -33736.726      188.04155     -3.626698      -3.6905318      0.063833737    0.0052629444  -0.1444703      0.0031319088  -0.23804616   
       319   319            495.02381     -33733.695     -98.550978     -3.6263722     -3.6896632      0.06329097     0.0053314072  -0.21746892     0.0032163281   0.32259417   
       320   320            494.16238     -33731.314     -715.9802      -3.6261162     -3.6892971      0.063180832    0.0054021725   0.077117592    0.0032964285   1.0828559    
       321   321            496.7195      -33729.168     -1581.8436     -3.6258855     -3.6893933      0.063507771    0.0054716565   0.72130752     0.0033630287   1.9178792    
       322   322            500.58175     -33727.024     -2331.4609     -3.625655      -3.6896566      0.064001577    0.0055320505   1.3499121      0.0034060841   2.5734469    
       323   323            504.84246     -33725.124     -2848.6973     -3.6254508     -3.6899971      0.064546327    0.0055757713   1.7435893      0.0034177722   3.0752489    
       324   324            509.57433     -33723.811     -3145.8423     -3.6253097     -3.690461       0.065151318    0.0055981238   1.8393931      0.0033921738   3.5080076    
       325   325            513.85126     -33723.309     -3219.2677     -3.6252557     -3.6909538      0.065698142    0.005598053    1.6247716      0.003324241    3.8690341    
       326   326            515.24819     -33723.431     -3072.3009     -3.6252688     -3.6911456      0.065876746    0.0055782787   1.1910878      0.0032098283   4.0625367    
       327   327            512.58174     -33723.897     -2686.3804     -3.6253189     -3.6908548      0.065535828    0.0055441657   0.67883963     0.0030468497   3.9145797    
       328   328            508.00588     -33724.698     -2211.6816     -3.625405      -3.6903558      0.064950785    0.0055020045   0.33423308     0.0028373733   3.4407344    
       329   329            504.59961     -33725.953     -1792.0017     -3.6255399     -3.6900552      0.064515278    0.0054560174   0.28693384     0.0025874052   2.7624085    
       330   330            502.66814     -33727.398     -1407.8736     -3.6256953     -3.6899636      0.064268331    0.0054067995   0.43853255     0.0023053926   1.9479456    
       331   331            499.97252     -33728.545     -910.25482     -3.6258186     -3.6897423      0.063923684    0.0053525324   0.54038995     0.0020013774   0.99244793   
       332   332            494.86867     -33729.173     -40.543763     -3.6258861     -3.6891572      0.063271134    0.005292012    0.27214905     0.001687039   -0.22664433   
       333   333            487.55543     -33728.976      1264.5534     -3.6258649     -3.688201       0.062336104    0.0052285228  -0.46957839     0.0013771551  -1.7196482    
       334   334            480.65807     -33727.648      2534.3598     -3.6257222     -3.6871764      0.061454246    0.0051710592  -1.347487       0.0010896997  -3.0180346    
       335   335            479.42818     -33725.771      3184.029      -3.6255204     -3.6868174      0.061297       0.0051302081  -1.8897734      0.00084017543 -3.5901549    
       336   336            487.58301     -33724.094      3094.4116     -3.6253401     -3.6876798      0.06233963     0.0051124348  -1.9350384      0.0006352381  -3.3874758    
       337   337            503.13756     -33722.789      2472.5639     -3.6251998     -3.6895281      0.064328348    0.005118161   -1.5852532      0.00047218156 -2.6598665    
       338   338            519.21893     -33721.997      1661.7079     -3.6251147     -3.6914991      0.066384422    0.0051430332  -1.0706661      0.00034200788 -1.7708841    
       339   339            527.73933     -33721.306      1145.3476     -3.6250404     -3.6925142      0.067473793    0.0051807319  -0.74305997     0.00023383684 -1.2109368    
       340   340            526.37382     -33720.591      1094.7906     -3.6249636     -3.6922628      0.067299207    0.0052272317  -0.73554855     0.00014081099 -1.1461291    
       341   341            520.98696     -33720.544      1091.1886     -3.6249585     -3.6915689      0.066610473    0.0052823976  -0.7585957      6.2067124e-05 -1.1367994    
       342   342            517.75866     -33721.805      654.97481     -3.625094      -3.6912917      0.066197721    0.0053464654  -0.48656001    -2.584968e-06  -0.67827674   
       343   343            516.1688      -33723.757     -61.501444     -3.6253039     -3.6912983      0.06599445     0.0054161031  -0.061414551   -5.8734131e-05  0.10891367   
       344   344            512.67481     -33726.021     -675.448       -3.6255472     -3.691095       0.065547728    0.0054861441   0.26418335    -0.00011589032  0.82160836   
       345   345            506.14427     -33728.42      -1015.7665     -3.6258052     -3.6905179      0.064712769    0.0055526501   0.40650468    -0.00018261725  1.2599187    
       346   346            499.1805      -33731.208     -1119.1165     -3.6261049     -3.6899273      0.063822421    0.0056139184   0.38849951    -0.00026413408  1.4641932    
       347   347            494.78736     -33734.733     -1266.7031     -3.6264838     -3.6897446      0.063260739    0.0056701929   0.39401763    -0.0003628179   1.7197712    
       348   348            492.7871      -33738.687     -1503.0363     -3.6269089     -3.6899138      0.063004997    0.0057214324   0.43115902    -0.00048164819  2.0865123    
       349   349            491.63077     -33743.104     -1641.15       -3.6273836     -3.6902408      0.062857154    0.0057672129   0.40213401    -0.00062492181  2.3444339    
       350   350            489.79862     -33748.072     -1398.6622     -3.6279178     -3.6905407      0.062622906    0.0058079132   0.17785897    -0.00079560109  2.1483271    
       351   351            486.46834     -33753.189     -806.04821     -3.6284678     -3.6906649      0.062197116    0.0058462707  -0.16551969    -0.00099117501  1.4839098    
       352   352            483.59899     -33758.545     -300.95264     -3.6290435     -3.6908738      0.061830256    0.0058864483  -0.3191706     -0.0012035229   0.78942181   
       353   353            483.49225     -33764.765      1.9723898     -3.6297123     -3.6915289      0.061816609    0.0059302939  -0.28602312    -0.0014242115   0.25401652   
       354   354            483.46696     -33771.625      328.32533     -3.6304497     -3.6922631      0.061813375    0.0059773877  -0.31142674    -0.0016467681  -0.26414957   
       355   355            478.74273     -33778.218      918.98993     -3.6311585     -3.6923678      0.061209362    0.0060280199  -0.61333123    -0.0018649668  -0.95173717   
       356   356            469.56949     -33784.368      1850.755      -3.6318196     -3.6918561      0.060036523    0.0060858202  -1.2593941     -0.0020705908  -1.8732281    
       357   357            460.47088     -33790.207      2786.9913     -3.6324473     -3.6913205      0.058873225    0.0061585582  -1.9835725     -0.0022526714  -2.7255983    
       358   358            455.05842     -33795.718      3308.9134     -3.6330397     -3.6912209      0.058181219    0.006254909   -2.4213393     -0.0024011335  -3.1633055    
       359   359            454.27702     -33800.52       3237.6053     -3.6335559     -3.6916372      0.058081314    0.0063800479  -2.3839519     -0.0025109225  -3.0848458    
       360   360            456.96093     -33804.851      2720.0362     -3.6340214     -3.6924459      0.058424464    0.0065333882  -1.9536076     -0.0025831871  -2.6621682    
       361   361            460.15341     -33808.105      2157.5379     -3.6343713     -3.6932039      0.058832636    0.0067096003  -1.4510073     -0.0026231853  -2.2441332    
       362   362            462.64711     -33810.382      1532.25       -3.6346161     -3.6937676      0.059151466    0.006902506   -0.91194256    -0.0026360876  -1.7508969    
       363   363            465.10144     -33811.721      688.03548     -3.63476       -3.6942253      0.059465263    0.0071055123  -0.24566345    -0.0026279368  -0.99694685   
       364   364            468.31794     -33812.231     -285.36436     -3.6348149     -3.6946914      0.059876506    0.0073105131   0.47807139    -0.0026078693  -0.062495185  
       365   365            471.84198     -33812.03      -1256.9819     -3.6347933     -3.6951203      0.060327071    0.0075087375   1.1445308     -0.0025871422   0.92688696   
       366   366            474.15739     -33810.874     -1888.2789     -3.634669      -3.6952921      0.060623106    0.0076921431   1.483505      -0.0025776194   1.6554615    
       367   367            475.89195     -33808.826     -2110.3393     -3.6344488     -3.6952937      0.060844878    0.0078566876   1.5057604     -0.0025879824   2.0026662    
       368   368            480.06665     -33806.42      -2159.4152     -3.6341902     -3.6955688      0.061378631    0.0080021861   1.5073317     -0.0026222959   2.0801172    
       369   369            487.6136      -33803.719     -2151.4774     -3.6338997     -3.6962433      0.062343542    0.0081287071   1.5931083     -0.0026813675   1.9777639    
       370   370            496.07537     -33800.271     -2093.089      -3.6335291     -3.6969545      0.063425416    0.0082352994   1.6909441     -0.0027638415   1.7776075    
       371   371            503.57201     -33796.045     -1927.342      -3.6330748     -3.6974587      0.064383894    0.0083208721   1.6631702     -0.0028671943   1.5221159    
       372   372            509.8809      -33791.418     -1568.3137     -3.6325774     -3.697768       0.065190514    0.0083858641   1.3962318     -0.0029882507   1.1787656    
       373   373            513.61941     -33786.432     -917.3816      -3.6320414     -3.6977099      0.065668498    0.0084336141   0.81667593    -0.0031227983   0.65194068   
       374   374            512.35869     -33780.631      127.49124     -3.6314178     -3.6969251      0.065507311    0.0084712363  -0.099431236   -0.0032644492  -0.20773856   
       375   375            506.59383     -33773.759      1458.1557     -3.6306791     -3.6954494      0.064770247    0.0085098896  -1.1972877     -0.0034028639  -1.3677428    
       376   376            501.49556     -33766.005      2622.7654     -3.6298456     -3.693964       0.064118412    0.0085628799  -2.0939717     -0.0035241651  -2.4389108    
       377   377            503.43402     -33757.972      3147.6681     -3.628982      -3.6933482      0.064366252    0.0086410087  -2.3949176     -0.0036156175  -3.0099829    
       378   378            514.49625     -33749.885      2893.1007     -3.6281126     -3.6938932      0.065780606    0.0087478048  -1.9821638     -0.0036705411  -2.9628029    
       379   379            531.34775     -33741.842      2013.4515     -3.627248      -3.6951831      0.067935146    0.0088781297  -1.0173153     -0.003689689   -2.4061792    
       380   380            548.67686     -33734.135      913.68214     -3.6264195     -3.6965703      0.070150748    0.009020173    0.11341439    -0.0036799065  -1.6585855    
       381   381            561.98494     -33727.936      45.68377      -3.6257532     -3.6976054      0.071852245    0.0091601622   0.99964437    -0.00365029    -1.0926473    
       382   382            566.00361     -33723.593     -367.66165     -3.6252862     -3.6976523      0.072366049    0.00928735     1.4395823     -0.0036077154  -0.88361609   
       383   383            557.4974      -33720.714     -282.2078      -3.6249767     -3.6962552      0.071278493    0.0093964527   1.3876917     -0.0035547485  -1.0297425    
       384   384            540.17643     -33719.317      243.35485     -3.6248266     -3.6938905      0.06906393     0.009488183    0.91971886    -0.0034896855  -1.4845427    
       385   385            522.35797     -33719.181      789.52643     -3.6248119     -3.6915977      0.066785763    0.0095683055   0.41522605    -0.0034071277  -1.911343     
       386   386            511.26359     -33720.125      755.83862     -3.6249134     -3.6902807      0.065367297    0.0096430039   0.38097652    -0.0033020346  -1.8034444    
       387   387            508.49952     -33721.508      107.26677     -3.6250622     -3.6900761      0.065013899    0.0097127198   0.83316134    -0.0031758004  -1.1347917    
       388   388            511.22906     -33722.828     -746.77278     -3.625204      -3.6905669      0.065362882    0.0097719792   1.4231541     -0.0030365424  -0.2646694    
       389   389            516.09864     -33724.056     -1488.424      -3.625336      -3.6913215      0.065985479    0.0098136562   1.8960398     -0.0028947633   0.52211209   
       390   390            521.15974     -33725.373     -2003.2835     -3.6254776     -3.6921102      0.066632564    0.0098320811   2.1675281     -0.0027599229   1.1167239    
       391   391            525.74413     -33727.083     -2346.3963     -3.6256615     -3.6928802      0.067218698    0.0098240618   2.2738964     -0.0026391333   1.5772971    
       392   392            529.37144     -33729.359     -2538.5459     -3.6259061     -3.6935885      0.067682465    0.0097884322   2.2285283     -0.0025378653   1.9289838    
       393   393            531.04372     -33732.23      -2480.6764     -3.6262148     -3.694111       0.067896274    0.0097258809   1.9826488     -0.0024602556   2.061146     
       394   394            529.57163     -33735.503     -2091.9408     -3.6265665     -3.6942746      0.06770806     0.0096395352   1.5094959     -0.0024077816   1.8702722    
       395   395            524.98765     -33738.892     -1443.3702     -3.6269308     -3.6940528      0.067121979    0.0095352727   0.90118048    -0.0023780284   1.3823983    
       396   396            519.32142     -33742.292     -780.37255     -3.6272964     -3.6936939      0.066397525    0.0094205845   0.38567959    -0.0023650215   0.78406521   
       397   397            514.45315     -33745.873     -279.61308     -3.6276814     -3.6934565      0.065775096    0.0093017927   0.091427156   -0.0023614874   0.24916084   
       398   398            509.17831     -33749.305      174.5701      -3.6280503     -3.693151       0.065100685    0.0091824952  -0.12357675    -0.0023609515  -0.27154532   
       399   399            501.63794     -33751.992      775.64231     -3.6283391     -3.6924758      0.064136616    0.0090653067  -0.45437285    -0.0023571428  -0.9095251    
       400   400            493.63894     -33754.018      1512.6274     -3.6285569     -3.6916708      0.063113908    0.0089542342  -0.90531908    -0.0023424129  -1.6501869    
       401   401            489.40062     -33755.61       2156.6964     -3.6287281     -3.6913001      0.06257202     0.0088547223  -1.281814      -0.002307918   -2.3144668    
       402   402            491.8992      -33757.123      2380.7259     -3.6288907     -3.6917822      0.062891474    0.0087712828  -1.3488385     -0.0022457726  -2.5940719    
       403   403            500.42607     -33758.642      2072.6925     -3.629054      -3.6930357      0.063981673    0.0087046471  -1.0704807     -0.0021527462  -2.3344494    
       404   404            511.41418     -33760.068      1409.2039     -3.6292073     -3.6945939      0.06538655     0.00865135    -0.61199752    -0.0020320972  -1.6604405    
       405   405            520.53815     -33761.708      716.65485     -3.6293836     -3.6959367      0.066553091    0.0086057577  -0.229396      -0.0018920465  -0.86763925   
       406   406            523.75576     -33763.378      372.07683     -3.6295631     -3.6965276      0.066964475    0.0085631857  -0.1748986     -0.0017422072  -0.34730648   
       407   407            519.95686     -33765.142      367.11091     -3.6297528     -3.6962315      0.066478769    0.0085229572  -0.37606727    -0.0015888772  -0.15865504   
       408   408            511.62977     -33767.037      423.32026     -3.6299565     -3.6953706      0.065414115    0.0084875044  -0.55899673    -0.0014343394  -0.093609909  
       409   409            502.6711      -33769.215      301.85721     -3.6301906     -3.6944593      0.064268709    0.0084590265  -0.51025501    -0.0012793811   0.047201235  
       410   410            494.90385     -33771.49      -108.30673     -3.6304352     -3.6937108      0.063275632    0.008436898   -0.16115854    -0.0011256981   0.38132388   
       411   411            487.82805     -33773.301     -718.44363     -3.6306299     -3.6930008      0.06237096     0.0084168466   0.38702572    -0.00097730627  0.85253569   
       412   412            481.81004     -33774.568     -1260.14       -3.630766      -3.6923676      0.061601531    0.0083922006   0.88495018    -0.00083985668  1.2515947    
       413   413            478.45359     -33775.442     -1623.4673     -3.6308601     -3.6920325      0.061172394    0.0083569302   1.2120622     -0.00071810808  1.5168476    
       414   414            478.53165     -33775.981     -1906.1353     -3.6309179     -3.6921003      0.061182374    0.0083071104   1.4246939     -0.00061518693  1.7610328    
       415   415            481.21456     -33776.139     -2058.9384     -3.630935      -3.6924604      0.061525397    0.0082402274   1.4823273     -0.00053395125  1.9428311    
       416   416            484.83045     -33775.958     -1958.0607     -3.6309155     -3.6929032      0.061987704    0.0081556645   1.3339086     -0.00047649301  1.9083391    
       417   417            487.64062     -33775.433     -1564.825      -3.630859      -3.693206       0.062346996    0.0080553137   1.0106129     -0.00044228644  1.570321     
       418   418            488.90743     -33774.48      -913.99286     -3.6307566     -3.6932656      0.062508964    0.0079431826   0.58635754    -0.0004271491   0.91613805   
       419   419            489.08287     -33773.348     -28.367485     -3.6306349     -3.6931663      0.062531394    0.0078244848   0.072467501   -0.00042310835 -0.034562363  
       420   420            488.38197     -33771.773      1051.0956     -3.6304656     -3.6929074      0.062441782    0.0077054943  -0.5763772     -0.00041865829 -1.1757662    
       421   421            487.68374     -33769.681      2080.7015     -3.6302407     -3.6925932      0.06235251     0.0075940898  -1.2528491     -0.00040005513 -2.2078477    
       422   422            488.44171     -33767.403      2922.2029     -3.6299959     -3.6924453      0.062449419    0.0074984434  -1.8550642     -0.00035493512 -2.9993738    
[...]
     10895   10895          494.44405     -33096.638      403.55253     -3.5578886     -3.6211054      0.063216845    1.0064563     -0.17246056    -0.0071184648  -0.52944497   
     10896   10896          501.40367     -33084.746      648.80903     -3.5566102     -3.6207169      0.064106663    1.0065572     -0.25984102    -0.0072191964  -0.91466871   
     10897   10897          509.35052     -33074.571      791.38573     -3.5555164     -3.6206391      0.065122703    1.006658      -0.35589008    -0.0072982584  -1.1098529    
     10898   10898          518.85882     -33066.717      788.01532     -3.554672      -3.6210104      0.06633838     1.0067589     -0.40475062    -0.0073510189  -1.0942817    
     10899   10899          527.42092     -33060.85       635.5105      -3.5540414     -3.6214745      0.067433082    1.0068597     -0.35904771    -0.0073778405  -0.90611994   
     10900   10900          532.29711     -33056.472      406.78641     -3.5535707     -3.6216272      0.068056525    1.0069606     -0.25150661    -0.0073831757  -0.63314098   
     10901   10901          532.98461     -33053.421      165.01627     -3.5532428     -3.6213872      0.068144425    1.0070614     -0.10119408    -0.0073734885  -0.35819942   
     10902   10902          530.51732     -33051.393     -143.63048     -3.5530247     -3.6208537      0.067828971    1.0071623      0.11545085    -0.0073552923  -0.023296552  
     10903   10903          526.97404     -33050.198     -559.35429     -3.5528963     -3.6202722      0.067375947    1.0072631      0.41174278    -0.0073365262   0.40709736   
     10904   10904          524.76365     -33049.847     -1040.0292     -3.5528586     -3.6199519      0.067093339    1.007364       0.79014548    -0.0073273997   0.85444238   
     10905   10905          524.0704      -33050.504     -1512.9883     -3.5529292     -3.6199339      0.067004704    1.0074648      1.2052555     -0.0073385307   1.2481239    
     10906   10906          521.874       -33051.626     -1829.0887     -3.5530498     -3.6197736      0.066723884    1.0075657      1.516568      -0.0073792681   1.4789594    
     10907   10907          516.55812     -33053.055     -1857.7397     -3.5532034     -3.6192476      0.066044226    1.0076665      1.5933682     -0.0074550979   1.4634346    
     10908   10908          509.76393     -33055.054     -1541.0073     -3.5534183     -3.6185938      0.065175559    1.0077674      1.3674214     -0.0075656592   1.1881228    
     10909   10909          503.56986     -33057.232     -969.03868     -3.5536524     -3.618036       0.06438362     1.0078682      0.87852366    -0.007704425    0.77176601   
     10910   10910          500.29235     -33059.505     -425.66682     -3.5538967     -3.6178613      0.063964576    1.0079691      0.33222114    -0.0078615224   0.46766848   
     10911   10911          501.04337     -33062.197     -31.662284     -3.5541862     -3.6182468      0.064060597    1.0080699     -0.12693115    -0.0080297401   0.3059698    
     10912   10912          502.68773     -33065.036      373.90572     -3.5544913     -3.6187622      0.064270836    1.0081708     -0.54302007    -0.0082052435   0.048402571  
     10913   10913          501.58827     -33067.241      883.69911     -3.5547284     -3.6188587      0.064130265    1.0082716     -0.93631096    -0.0083819282  -0.43918197   
     10914   10914          500.04144     -33069.179      1337.6056     -3.5549368     -3.6188693      0.063932495    1.0083725     -1.2167231     -0.0085482464  -0.96771271   
     10915   10915          501.69535     -33071.806      1567.9589     -3.5552192     -3.6193631      0.064143955    1.0084733     -1.3287481     -0.0086916867  -1.2953953    
     10916   10916          503.97192     -33074.618      1576.4826     -3.5555214     -3.6199564      0.064435024    1.0085742     -1.2972909     -0.0088044951  -1.3832943    
     10917   10917          503.25053     -33077.233      1494.3815     -3.5558025     -3.6201453      0.064342793    1.0086751     -1.198014      -0.0088845911  -1.3693324    
     10918   10918          500.03953     -33079.993      1333.7439     -3.5560993     -3.6200315      0.063932251    1.0087759     -0.97183872    -0.0089323004  -1.3335352    
     10919   10919          496.67005     -33082.788      978.7303      -3.5563997     -3.6199012      0.063501449    1.0088768     -0.50552429    -0.0089484616  -1.1930091    
     10920   10920          496.03194     -33085.693      393.97955     -3.556712      -3.6201318      0.063419863    1.0089776      0.15919704    -0.0089363877  -0.8502698    
     10921   10921          499.22913     -33088.908     -317.95878     -3.5570576     -3.6208863      0.063828639    1.0090785      0.84875059    -0.0089041756  -0.31532757   
     10922   10922          503.69734     -33092.063     -990.57193     -3.5573968     -3.6217967      0.064399918    1.0091793      1.3911608     -0.008864475    0.29859716   
     10923   10923          506.72692     -33095.138     -1421.3704     -3.5577273     -3.6225146      0.064787264    1.0092802      1.6496312     -0.0088318142   0.78776467   
     10924   10924          507.63016     -33098.49      -1508.0823     -3.5580876     -3.6229904      0.064902747    1.009381       1.6199504     -0.0088177783   0.98540597   
     10925   10925          506.77636     -33102.054     -1318.158      -3.5584708     -3.6232643      0.064793584    1.0094819      1.4212377     -0.0088270567   0.8869192    
     10926   10926          505.98174     -33105.9       -977.43212     -3.5588843     -3.6235762      0.06469199     1.0095827      1.1361216     -0.008857328    0.61735981   
     10927   10927          506.39742     -33110.518     -496.81652     -3.5593807     -3.6241258      0.064745136    1.0096836      0.70841978    -0.0089022181   0.24938189   
     10928   10928          504.43303     -33115.478      169.05129     -3.5599139     -3.6244079      0.06449398     1.0097844      0.069437516   -0.0089530199  -0.2089867    
     10929   10929          496.98605     -33119.634      941.24956     -3.5603607     -3.6239025      0.063541851    1.0098853     -0.6788189     -0.0089988841  -0.7284384    
     10930   10930          488.55956     -33123.734      1554.9929     -3.5608014     -3.6232659      0.062464487    1.0099861     -1.2871081     -0.0090275123  -1.1454089    
     10931   10931          483.92012     -33128.149      1835.8801     -3.561276      -3.6231473      0.061871314    1.010087      -1.6006491     -0.0090290267  -1.3357486    
     10932   10932          481.84888     -33132.354      1695.89       -3.561728      -3.6233345      0.061606497    1.0101878     -1.5584386     -0.0089989078  -1.2029332    
     10933   10933          479.55917     -33135.587      1236.5813     -3.5620756     -3.6233893      0.061313748    1.0102887     -1.21658       -0.0089402806  -0.82270812   
     10934   10934          477.61076     -33138.309      687.30573     -3.5623682     -3.6234328      0.061064635    1.0103895     -0.70991052    -0.0088621289  -0.4128306    
     10935   10935          476.39448     -33140.604      101.08505     -3.5626149     -3.6235241      0.060909128    1.0104904     -0.10040975    -0.0087741461  -0.0077591758 
     10936   10936          474.65902     -33141.879     -414.13928     -3.562752      -3.6234392      0.060687242    1.0105912      0.46702617    -0.0086859217   0.33375295   
     10937   10937          473.57184     -33142.44      -753.15297     -3.5628123     -3.6233606      0.060548241    1.0106921      0.85732148    -0.0086055491   0.54530759   
     10938   10938          474.49405     -33142.82      -866.4676      -3.5628531     -3.6235193      0.06066615     1.0107929      1.0149479     -0.0085380495   0.58207614   
     10939   10939          475.11321     -33142.705     -706.56979     -3.5628407     -3.623586       0.060745312    1.0108938      0.89500679    -0.0084843048   0.40047237   
     10940   10940          473.1222      -33141.537     -342.03317     -3.5627152     -3.6232059      0.060490753    1.0109947      0.56529379    -0.0084400186   0.0564221    
     10941   10941          471.05847     -33139.75       52.590668     -3.5625231     -3.62275        0.060226896    1.0110955      0.22334524    -0.0083970381  -0.33152099   
     10942   10942          472.4531      -33137.571      286.92416     -3.5622889     -3.6226941      0.060405205    1.0111964      0.055144557   -0.0083461622  -0.60514752   
     10943   10943          477.70806     -33134.652      218.92918     -3.5619751     -3.6230522      0.061077075    1.0112972      0.14934592    -0.0082808937  -0.59820308   
     10944   10944          485.95562     -33130.769     -47.918159     -3.5615577     -3.6236893      0.062131561    1.0113981      0.37826325    -0.0082013852  -0.36242213   
     10945   10945          495.85015     -33126.346     -310.59663     -3.5610822     -3.6244788      0.063396621    1.0114989      0.55441637    -0.0081132199  -0.061635367  
     10946   10946          503.25913     -33121.162     -424.78796     -3.5605249     -3.6248688      0.064343891    1.0115998      0.55326826    -0.0080235298   0.17857478   
     10947   10947          504.76159     -33114.803     -333.88378     -3.5598413     -3.6243773      0.064535988    1.0117006      0.34419081    -0.0079380167   0.2791695    
     10948   10948          503.13335     -33107.701     -161.88151     -3.5590779     -3.6234057      0.06432781     1.0118015      0.084215053   -0.0078590732   0.28190139   
     10949   10949          504.74601     -33100.466     -137.59027     -3.5583001     -3.6228341      0.064533996    1.0119023      0.014131849   -0.0077867697   0.32484125   
     10950   10950          512.81687     -33093.332     -400.06316     -3.5575332     -3.623099       0.06556589     1.0120032      0.24258616    -0.0077221319   0.52571812   
     10951   10951          524.50828     -33086.299     -821.23271     -3.5567771     -3.6238378      0.067060689    1.012104       0.62201156    -0.0076699396   0.82125367   
     10952   10952          533.71055     -33079.423     -1079.9345     -3.5560379     -3.6242752      0.06823724     1.0122049      0.8417215     -0.0076372258   0.99952343   
     10953   10953          536.32884     -33073.052     -990.1503      -3.5553531     -3.6239251      0.068571999    1.0123057      0.72519963    -0.0076282411   0.94014911   
     10954   10954          533.17655     -33067.61      -620.75414     -3.5547681     -3.6229371      0.068168965    1.0124066      0.34929206    -0.0076415886   0.68517158   
     10955   10955          528.90927     -33063.278     -199.24654     -3.5543023     -3.6219257      0.067623375    1.0125074     -0.059215861   -0.0076712192   0.38506446   
     10956   10956          528.83017     -33060.289      0.62571327    -3.5539811     -3.6215944      0.067613261    1.0126083     -0.23114967    -0.0077100071   0.22830457   
     10957   10957          534.14758     -33058.827     -76.602289     -3.553824      -3.6221171      0.068293115    1.0127091     -0.094418821   -0.0077542304   0.24924625   
     10958   10958          539.53821     -33058.461     -236.54665     -3.5537846     -3.6227669      0.068982332    1.01281        0.16721499    -0.0078043888   0.30309615   
     10959   10959          538.61845     -33058.472     -266.27574     -3.5537857     -3.6226504      0.068864736    1.0129108      0.34170012    -0.0078617643   0.2316343    
     10960   10960          531.73489     -33058.882     -136.33471     -3.5538298     -3.6218145      0.067984643    1.0130117      0.36819381    -0.0079246611   0.019908348  
     10961   10961          524.46856     -33060.179      13.347937     -3.5539693     -3.6210249      0.06705561     1.0131126      0.32511976    -0.0079880502  -0.19661818   
     10962   10962          520.1362      -33062.127      38.901855     -3.5541787     -3.6206804      0.066501699    1.0132134      0.30790046    -0.0080467875  -0.26602315   
     10963   10963          518.01599     -33064.319     -65.994098     -3.5544143     -3.6206449      0.066230621    1.0133143      0.32211891    -0.0080992224  -0.16202982   
     10964   10964          515.90101     -33066.462     -178.30414     -3.5546446     -3.6206048      0.065960212    1.0134151      0.29736315    -0.0081478234  -0.0015320704 
     10965   10965          512.62303     -33068.307     -252.08604     -3.554843      -3.6203841      0.065541107    1.013516       0.23539107    -0.008196402    0.14074306   
     10966   10966          509.47573     -33069.962     -339.54629     -3.5550209     -3.6201596      0.065138711    1.0136168      0.19955346    -0.0082483379   0.28289049   
     10967   10967          508.18213     -33071.744     -465.05156     -3.5552125     -3.6201858      0.064973319    1.0137177      0.20136245    -0.0083070092   0.4507761    
     10968   10968          507.504       -33073.604     -580.11559     -3.5554125     -3.6202991      0.064886617    1.0138185      0.18474395    -0.0083764063   0.62201304   
     10969   10969          504.52739     -33075.048     -621.87953     -3.5555677     -3.6200737      0.064506044    1.0139194      0.1171137     -0.0084605996   0.72926744   
     10970   10970          499.4913      -33076.109     -613.75554     -3.5556817     -3.6195439      0.063862158    1.0140202      0.076118619   -0.00856214     0.7445943    
     10971   10971          495.57461     -33077.208     -614.80515     -3.5557999     -3.6191612      0.063361392    1.0141211      0.16074319    -0.0086813946   0.67500572   
     10972   10972          494.22082     -33078.289     -710.82547     -3.555916      -3.6191043      0.063188304    1.0142219      0.42731627    -0.0088167137   0.60382067   
     10973   10973          494.45881     -33078.992     -974.44894     -3.5559916     -3.6192103      0.063218733    1.0143228      0.85319994    -0.0089664085   0.66404723   
     10974   10974          496.20107     -33079.365     -1357.9639     -3.5560317     -3.6194732      0.063441488    1.0144236      1.3187077     -0.009131907    0.88063552   
     10975   10975          500.38606     -33079.966     -1766.5686     -3.5560963     -3.6200729      0.063976556    1.0145245      1.7198152     -0.0093183437   1.1920447    
     10976   10976          505.82333     -33080.923     -2064.6007     -3.5561992     -3.620871       0.064671736    1.0146253      1.9829619     -0.009533096    1.4508833    
     10977   10977          509.51618     -33082.14      -2048.6133     -3.55633       -3.6214739      0.065143883    1.0147262      2.0041192     -0.0097822861   1.4279962    
     10978   10978          508.99168     -33083.479     -1599.5807     -3.556474      -3.6215508      0.065076824    1.014827       1.7021601     -0.010065351    1.0069469    
     10979   10979          503.63718     -33084.444     -774.33606     -3.5565778     -3.62097        0.064392227    1.0149279      1.0826788     -0.010372292    0.27017833   
     10980   10980          496.24988     -33084.751      190.03251     -3.5566107     -3.6200584      0.063447729    1.0150287      0.28651985    -0.010685652   -0.53980179   
     10981   10981          491.70323     -33084.83       982.94883     -3.5566192     -3.6194857      0.062866419    1.0151296     -0.45402547    -0.01098626    -1.1423022    
     10982   10982          492.06327     -33084.887      1415.3633     -3.5566253     -3.6195378      0.062912451    1.0152305     -0.96025017    -0.011259878   -1.3936909    
     10983   10983          495.85654     -33084.82       1471.1819     -3.5566181     -3.6200156      0.063397438    1.0153313     -1.1758893     -0.011500581   -1.3084766    
     10984   10984          501.04225     -33084.907      1266.7187     -3.5566275     -3.620688       0.064060454    1.0154322     -1.1520522     -0.011710395   -1.0162676    
     10985   10985          505.25186     -33085.22       911.59844     -3.5566612     -3.6212598      0.064598672    1.015533      -0.94233673    -0.011896231   -0.64042303   
     10986   10986          506.75738     -33085.559      498.22473     -3.5566976     -3.6214888      0.064791158    1.0156339     -0.60787431    -0.012066964   -0.27685556   
     10987   10987          506.29857     -33086.221      103.3413      -3.5567687     -3.6215012      0.064732497    1.0157347     -0.21347009    -0.012231174    0.0091453594 
     10988   10988          504.81856     -33087.355     -224.06185     -3.5568907     -3.621434       0.064543272    1.0158356      0.18920066    -0.012395608    0.18776365   
     10989   10989          501.62807     -33088.667     -421.6932      -3.5570317     -3.6211671      0.064135354    1.0159364      0.5285567     -0.012564474    0.22231861   
     10990   10990          496.36685     -33089.824     -457.20434     -3.5571561     -3.6206187      0.063462683    1.0160373      0.75052825    -0.012738585    0.10255092   
     10991   10991          491.02035     -33090.812     -400.715       -3.5572623     -3.6200415      0.06277911     1.0161381      0.86580459    -0.012915115   -0.077080135  
     10992   10992          488.33173     -33091.862     -344.7403      -3.5573752     -3.6198105      0.062435358    1.016239       0.9163353     -0.013089831   -0.21422641   
     10993   10993          488.42681     -33092.973     -307.58537     -3.5574945     -3.6199421      0.062447514    1.0163398      0.91349014    -0.013259501   -0.29527      
     10994   10994          488.89751     -33093.799     -256.30516     -3.5575834     -3.6200911      0.062507696    1.0164407      0.84206838    -0.013422221   -0.34939454   
     10995   10995          488.19571     -33094.307     -168.99457     -3.557638      -3.620056       0.062417967    1.0165415      0.6854725     -0.013576717   -0.36749992   
     10996   10996          486.94081     -33094.596     -29.846203     -3.5576691     -3.6199266      0.062257523    1.0166424      0.44386326    -0.013722566   -0.35850017   
     10997   10997          486.5606      -33094.809      102.81515     -3.5576919     -3.6199008      0.062208911    1.0167432      0.21363861    -0.013859981   -0.33212147   
     10998   10998          487.36079     -33094.969      148.69562     -3.5577092     -3.6200204      0.062311218    1.0168441      0.10907163    -0.013989586   -0.2835802    
     10999   10999          487.95389     -33094.879      119.42313     -3.5576995     -3.6200865      0.062387049    1.0169449      0.11581713    -0.014112523   -0.23043046   
     11000   11000          487.02806     -33094.229      78.384126     -3.5576297     -3.6198983      0.062268678    1.0170458      0.13721002    -0.014230042   -0.18700931   
Loop time of 61.8711 on 64 procs for 10000 steps with 400 atoms

Performance: 13.965 ns/day, 1.719 hours/ns, 161.626 timesteps/s
6188.8% CPU use with 1 MPI tasks x 64 OpenMP threads

MPI task timing breakdown:
Section |  min time  |  avg time  |  max time  |%varavg| %total
---------------------------------------------------------------
Pair    | 59.908     | 59.908     | 59.908     |   0.0 | 96.83
Neigh   | 0.1887     | 0.1887     | 0.1887     |   0.0 |  0.30
Comm    | 0.041952   | 0.041952   | 0.041952   |   0.0 |  0.07
Output  | 0.79532    | 0.79532    | 0.79532    |   0.0 |  1.29
Modify  | 0.8806     | 0.8806     | 0.8806     |   0.0 |  1.42
Other   |            | 0.05646    |            |       |  0.09

Nlocal:            400 ave         400 max         400 min
Histogram: 1 0 0 0 0 0 0 0 0 0
Nghost:            422 ave         422 max         422 min
Histogram: 1 0 0 0 0 0 0 0 0 0
Neighs:          16098 ave       16098 max       16098 min
Histogram: 1 0 0 0 0 0 0 0 0 0

Total # of neighbors = 16098
Ave neighs/atom = 40.245
Neighbor list builds = 166
Dangerous builds = 0
Total wall time: 0:01:08
