LAMMPS (23 Jun 2022 - Update 2)
  using 64 OpenMP thread(s) per MPI task
################################################################################
# GRAPHENE: TENSILE TEST
################################################################################
#
# This is a lammps input file to simulate the stretching or compression of
# graphene. The output data can be used to calculate the Young's modulus and the
# breaking stress/strain. Buckling of a graphene sheet can be studied by
# compressing the sheet.
#
# When using this script, make sure that lammps is installed with the USER-REAXC
# and the MANYBODY packages.
#
# Date: 28/03/2016
# Author: Jeroen Mulkers
# Mail: jeroen.mulkers@uantwerpen.be
#
################################################################################


# UNITS
# 'real' units are needed when using reax/c. The default time step (1fs) for
# real units is used. Some useful conversion factors are defined.
units        real
timestep     1
variable     fpress  equal 0.000101325  # atm -> GPa
variable     fenergy equal 0.043        # Kcal/mole -> eV

# GRAPHENE SHEET
# The atom positions and the simulation box size will be read from a data file.
# Reactive force fields (reaxFF) are used to describe the interaction between
# the carbon atoms.(The pair_style reax is deprecated. so we use the modern
# reax/c implementation)
dimension    3
boundary     p p f
atom_style   charge
read_data    silicene.dat
Reading data file ...
  orthogonal box = (0 0 -10) to (65.502 37.8176 10)
  1 by 1 by 1 MPI processor grid
  reading atoms ...
  400 atoms
  read_data CPU = 0.003 seconds
pair_style   reax/c NULL checkqeq no
pair_coeff   * * ffield.reax.CHONSSi.2 Si

# OUTPUT
# Calculate the average total, kinetic and potential energy per atom. Stress and
# strain are defined in x and y direction. When calculating the stress, we
# assume that the thickness of graphene is 3.35A.
variable     tmp     equal lx
variable     lx0     equal ${tmp}
variable     lx0     equal 65.502
variable     tmp     equal ly
variable     ly0     equal ${tmp}
variable     ly0     equal 37.8176
variable     etotal  equal etotal/atoms*${fenergy} #eV/atom
variable     etotal  equal etotal/atoms*0.043 
variable     pe      equal     pe/atoms*${fenergy} #eV/atom
variable     pe      equal     pe/atoms*0.043 
variable     ke      equal     ke/atoms*${fenergy} #eV/atom
variable     ke      equal     ke/atoms*0.043 
variable     strainx equal (lx-${lx0})/${lx0}
variable     strainx equal (lx-65.502)/${lx0}
variable     strainx equal (lx-65.502)/65.502
variable     strainy equal (ly-${ly0})/${ly0}
variable     strainy equal (ly-37.8176)/${ly0}
variable     strainy equal (ly-37.8176)/37.8176
variable     stressx equal -pxx*(lz/3.35)*${fpress} #GPa
variable     stressx equal -pxx*(lz/3.35)*0.000101325 
variable     stressy equal -pyy*(lz/3.35)*${fpress} #GPa
variable     stressy equal -pyy*(lz/3.35)*0.000101325 
thermo_style custom step time temp etotal press v_etotal v_pe v_ke              v_strainx v_stressx v_strainy v_stressy

# TEMPERATURE SETTINGS
variable     temp index 300
variable     seed index 1717
velocity     all create ${temp} ${seed} dist uniform
velocity     all create 300 ${seed} dist uniform
velocity     all create 300 1717 dist uniform

# EQUILIBRATION
# Relaxation of the system will be done in a NPT ensemble. The size of the
# simulation box can change in x and y direction to resolve stresses. The number
# of time steps should be large enough to relax the system in your final
# simulation but can be small for debugging purposes.
fix          fnpt all npt temp ${temp} ${temp} 10 x 0 0 500 y 0 0 500
fix          fnpt all npt temp 300 ${temp} 10 x 0 0 500 y 0 0 500
fix          fnpt all npt temp 300 300 10 x 0 0 500 y 0 0 500
thermo       1
run          1000

CITE-CITE-CITE-CITE-CITE-CITE-CITE-CITE-CITE-CITE-CITE-CITE-CITE

Your simulation uses code contributions which should be cited:

- pair reaxff command:

@Article{Aktulga12,
 author = {H. M. Aktulga, J. C. Fogarty, S. A. Pandit, A. Y. Grama},
 title = {Parallel reactive molecular dynamics: Numerical methods and algorithmic techniques},
 journal = {Parallel Computing},
 year =    2012,
 volume =  38,
 pages =   {245--259}
}

CITE-CITE-CITE-CITE-CITE-CITE-CITE-CITE-CITE-CITE-CITE-CITE-CITE

Neighbor list info ...
  update every 1 steps, delay 10 steps, check yes
  max neighbors/atom: 2000, page size: 100000
  master list distance cutoff = 12
  ghost atom cutoff = 12
  binsize = 6, bins = 11 7 4
  1 neighbor lists, perpetual/occasional/extra = 1 0 0
  (1) pair reax/c, perpetual
      attributes: half, newton off, ghost
      pair build: half/bin/newtoff/ghost
      stencil: full/ghost/bin/3d
      bin: standard
Per MPI rank memory allocation (min/avg/max) = 70.99 | 70.99 | 70.99 Mbytes
   Step          Time           Temp          TotEng         Press         v_etotal         v_pe           v_ke        v_strainx      v_stressx      v_strainy      v_stressy   
         0   0              300           -32562.073     -13009.392     -3.5004229     -3.5387792      0.038356319    0              11.365532      0              11.365572    
         1   1              301.27433     -32565.153     -13116.886     -3.5007539     -3.5392732      0.038519248   -0.00011355853  11.401053     -0.00011355893  11.501644    
         2   2              306.65569     -32574.644     -13541.511     -3.5017743     -3.5409815      0.039207277   -0.00045481164  11.697556     -0.00045682136  11.902593    
         3   3              316.74145     -32591.462     -14280.914     -3.5035822     -3.544079       0.040496787   -0.0010292368   12.24968      -0.0010373428   12.56941     
         4   4              332.55965     -32617.262     -15314.723     -3.5063556     -3.5488748      0.042519212   -0.0018469365   13.036564     -0.0018674894   13.488302    
         5   5              355.50506     -32654.498     -16571.337     -3.5103586     -3.5558114      0.045452885   -0.0029219103   13.994305     -0.0029638329   14.602639    
         6   6              386.98604     -32706.322     -17871.127     -3.5159296     -3.5654075      0.049477866   -0.0042702915   14.969498     -0.0043455014   15.764092    
         7   7              427.49017     -32775.924     -18861.652     -3.5234118     -3.5780683      0.054656496   -0.0059066087   15.667295     -0.0060304909   16.675171    
         8   8              475.1559      -32864.577     -19005.99      -3.5329421     -3.5936928      0.06075077    -0.0078371069   15.644257     -0.0080288583   16.874051    
         9   9              524.83028     -32967.76      -17631.889     -3.5440342     -3.6111361      0.067101858   -0.010050234    14.354183     -0.010332748    15.765339    
        10   10             566.20913     -33071.232     -13641.844     -3.5551574     -3.6275497      0.072392326   -0.012505733    10.931403     -0.012904425    12.344524    
        11   11             577.52923     -33147.638     -4567.6839     -3.5633711     -3.6372108      0.07383965    -0.015119109    3.3791533     -0.015658067    4.4364902    
        12   12             536.32811     -33152.619      12320.444     -3.5639066     -3.6324785      0.068571907   -0.017727737   -10.701414     -0.018422743   -10.125252    
        13   13             468.2927      -33057.919      34101.626     -3.5537263     -3.6135996      0.05987328    -0.02005477    -28.861022     -0.020911351   -28.811531    
        14   14             457.21041     -32922.662      50645.598     -3.5391861     -3.5976425      0.058456361   -0.02176665    -42.415333     -0.022780115   -43.203618    
        15   15             543.22636     -32850.241      54463.97      -3.5314009     -3.6008548      0.069453878   -0.022636891   -44.911604     -0.023787566   -47.16202     
        16   16             664.20598     -32877.32       46188.956     -3.5343119     -3.6192336      0.084921654   -0.022653278   -37.566223     -0.023895866   -40.56023     
        17   17             741.15712     -32967.751      32375.473     -3.5440333     -3.6387935      0.094760195   -0.021981569   -26.419541     -0.023258914   -28.421293    
        18   18             750.17316     -33070.545      19429.965     -3.5550836     -3.6509965      0.095912935   -0.020849193   -16.346552     -0.022124031   -16.656987    
        19   19             706.83195     -33156.113      9847.2137     -3.5642821     -3.6546537      0.090371571   -0.019456658   -8.9486786     -0.020723757   -7.8695933    
        20   20             637.46223     -33218.043      3489.6944     -3.5709396     -3.652442       0.081502348   -0.017950115   -4.0478824     -0.019229882   -2.0251658    
        21   21             565.19345     -33259.983     -628.51746     -3.5754482     -3.6477107      0.072262467   -0.016425851   -0.83771416    -0.017755406    1.7199853    
        22   22             502.98732     -33287.217     -3321.0401     -3.5783759     -3.642685       0.064309139   -0.014945909    1.369864      -0.016370967    4.0506005    
        23   23             454.57051     -33304.584     -5041.2919     -3.5802428     -3.6383617      0.058118837   -0.01355132     2.9236129     -0.015118168    5.3833435    
        24   24             419.09113     -33315.994     -6025.4565     -3.5814693     -3.635052       0.053582643   -0.012268968    3.9417858     -0.014017935    5.9999202    
        25   25             395.23824     -33324.527     -6450.3808     -3.5823867     -3.6329196      0.050532947   -0.011114179    4.4766312     -0.013076422    6.1506774    
        26   26             382.14261     -33332.518     -6475.398      -3.5832457     -3.6321043      0.048858612   -0.010092141    4.6094421     -0.012290326    6.0258686    
        27   27             378.07962     -33341.293     -6181.1829     -3.584189      -3.6325282      0.048339142   -0.0091999149   4.4147006     -0.01165097     5.6877991    
        28   28             380.9049      -33351.617     -5575.4146     -3.5852988     -3.6339992      0.048700366   -0.0084282705   3.926225      -0.011145832    5.1180624    
        29   29             389.12805     -33364.116     -4639.8244     -3.5866424     -3.6363942      0.049751732   -0.0077626658   3.1579654     -0.010758458    4.280427     
        30   30             401.46283     -33379.092     -3443.3956     -3.5882523     -3.6395811      0.051328787   -0.0071837814   2.213325      -0.01046799     3.1990626    
        31   31             416.14816     -33396.68      -2149.4216     -3.5901431     -3.6433495      0.053206371   -0.0066697013   1.2779161     -0.010249821    1.9667555    
        32   32             430.02885     -33416.772     -847.17345     -3.592303      -3.6472841      0.054981079   -0.0061995561   0.43605931    -0.010077483    0.64537879   
        33   33             439.05934     -33438.83       458.49502     -3.5946743     -3.6508099      0.056135667   -0.0057550768  -0.36638996    -0.0099238544  -0.70958469   
        34   34             440.74534     -33462.505      1828.7894     -3.5972193     -3.6535705      0.056351228   -0.0053194274  -1.240327      -0.0097621699  -2.1022359    
        35   35             433.79231     -33487.549      3400.2777     -3.5999115     -3.6553737      0.055462254   -0.0048749777  -2.3175603     -0.009565843   -3.6378017    
        36   36             417.41603     -33513.084      5182.0986     -3.6026565     -3.656025       0.053368474   -0.0044007305  -3.5621304     -0.0093063444  -5.3612269    
        37   37             395.11996     -33538.718      6732.5359     -3.6054121     -3.65593        0.050517823   -0.0038730473  -4.6271454     -0.0089522865  -6.8630788    
        38   38             375.31425     -33565.024      7448.7372     -3.6082401     -3.6562257      0.047985577   -0.0032723536  -5.1493122     -0.008477262   -7.4933481    
        39   39             364.47057     -33592.037      7014.0382     -3.611144      -3.6577432      0.046599165   -0.0025900156  -4.9769707     -0.0078721469  -6.8941683    
        40   40             362.29628     -33618.367      5625.3376     -3.6139745     -3.6602956      0.046321172   -0.001831008   -4.2358101     -0.0071515728  -5.2939462    
        41   41             364.61875     -33642.359      3758.5983     -3.6165535     -3.6631717      0.04661811    -0.0010111953  -3.1348557     -0.00634904    -3.2890576    
        42   42             367.91938     -33663.244      1821.0831     -3.6187988     -3.6658389      0.04704011    -0.00015307573 -1.8531204     -0.0055050556  -1.370845     
        43   43             370.30286     -33681.116      87.373421     -3.62072       -3.6680649      0.047344849    0.00071781041 -0.61323094    -0.0046575231   0.24358229   
        44   44             370.74554     -33696.433     -1315.7192     -3.6223666     -3.669768       0.047401447    0.0015772859   0.38553283    -0.0038376062   1.5520183    
        45   45             369.05054     -33709.791     -2446.4832     -3.6238025     -3.6709872      0.047184734    0.0024064261   1.1359809     -0.0030698356   2.6564691    
        46   46             366.49913     -33721.505     -3456.9004     -3.6250618     -3.6719204      0.046858524    0.0031915974   1.7713921     -0.0023742482   3.6748709    
        47   47             366.43891     -33732.196     -4531.7373     -3.6262111     -3.6730619      0.046850825    0.0039217117   2.4764728     -0.0017688065   4.7305047    
        48   48             371.54638     -33742.805     -5663.4284     -3.6273515     -3.6748554      0.047503837    0.0045844999   3.2878053     -0.0012718882   5.7784292    
        49   49             380.26499     -33754.211     -6661.463      -3.6285777     -3.6771963      0.04861855     0.0051657873   4.0983064     -0.00090140885  6.6144517    
        50   50             387.92841     -33767.07      -7238.2292     -3.62996       -3.6795584      0.049598352    0.0056516426   4.6943382     -0.00067080512  6.9766355    
        51   51             390.99828     -33781.875     -7159.1008     -3.6315516     -3.6815424      0.049990848    0.0060326155   4.8446542     -0.00058394492  6.7022812    
        52   52             389.01029     -33798.685     -6437.2462     -3.6333586     -3.6830953      0.049736675    0.0063082547   4.4938316     -0.00063210279  5.8609472    
        53   53             383.10397     -33816.842     -5196.0832     -3.6353105     -3.684292       0.048981526    0.0064880311   3.7112055     -0.00079560589  4.5858613    
        54   54             374.76019     -33835.178     -3631.3996     -3.6372816     -3.6851963      0.047914737    0.006589756    2.6550308     -0.0010467032   3.0494152    
        55   55             365.91569     -33852.802     -1997.6419     -3.6391763     -3.6859602      0.046783929    0.0066362609   1.5266275     -0.0013531417   1.4770903    
        56   56             358.49783     -33869.305     -507.71547     -3.6409503     -3.6867858      0.045835523    0.006651291    0.47943125    -0.0016827094   0.069250295  
        57   57             353.4998      -33884.771      668.86748     -3.6426128     -3.6878093      0.045196503    0.0066564472  -0.39022982    -0.0020071696  -0.98830486   
        58   58             350.41854     -33899.465      1435.3538     -3.6441925     -3.688995       0.04480255     0.0066693353  -1.0323244     -0.0023058188  -1.5846209    
        59   59             348.07991     -33913.563      1830.254      -3.645708      -3.6902115      0.044503547    0.0067026731  -1.4356512     -0.0025674908  -1.7966152    
        60   60             345.91382     -33927.427      1983.345      -3.6471984     -3.691425       0.044226602    0.0067641836  -1.6462557     -0.0027888133  -1.7979933    
        61   61             343.39619     -33941.136      1982.0503     -3.6486721     -3.6925768      0.043904713    0.0068576226  -1.7009438     -0.0029706028  -1.7009401    
        62   62             340.19542     -33954.523      1797.1053     -3.6501112     -3.6936067      0.043495479    0.006983592   -1.5725796     -0.0031155643  -1.4851604    
        63   63             337.27156     -33967.59       1302.3225     -3.6515159     -3.6946376      0.043121651    0.0071390473  -1.1989481     -0.0032286667  -1.0016293    
        64   64             335.91706     -33980.503      385.64256     -3.6529041     -3.6958526      0.042948472    0.0073161011  -0.5172933     -0.0033200717  -0.12597771   
        65   65             335.6797      -33993.288     -858.60048     -3.6542785     -3.6971966      0.042918125    0.007500823    0.40459821    -0.0034075339   1.0507618    
        66   66             334.09551     -34005.923     -2075.2666     -3.6556368     -3.6983523      0.04271558     0.0076746684   1.3171095     -0.0035144978   2.1852424    
        67   67             328.80002     -34018.087     -2897.8727     -3.6569444     -3.6989829      0.042038528    0.0078195362   1.9608212     -0.0036632168   2.9275534    
        68   68             321.596       -34029.626     -3380.6436     -3.6581848     -3.6993022      0.041117462    0.0079229611   2.3573756     -0.0038678377   3.3450763    
        69   69             318.09914     -34041.397     -3753.8475     -3.6594501     -3.7001205      0.040670373    0.0079775977   2.6588104     -0.0041358608   3.6660519    
        70   70             320.60125     -34053.967     -4051.4565     -3.6608014     -3.7017917      0.040990278    0.0079780981   2.8925834     -0.0044727651   3.9162737    
        71   71             325.34712     -34067.031     -4094.4304     -3.6622059     -3.7038029      0.041597059    0.0079205366   2.9354518     -0.0048825422   3.9184907    
        72   72             328.57846     -34080.111     -3584.7615     -3.6636119     -3.7056221      0.0420102      0.0078048695   2.5863159     -0.0053641985   3.3823408    
        73   73             330.03079     -34093.229     -2491.4393     -3.6650221     -3.707218       0.042195888    0.007638915    1.830174      -0.0059060861   2.2737809    
        74   74             329.92772     -34105.475     -1016.2763     -3.6663386     -3.7085213      0.04218271     0.0074385326   0.79880854    -0.0064854179   0.79818334   
        75   75             328.50708     -34116.44       625.86917     -3.6675173     -3.7095184      0.042001074    0.007224851   -0.38885563    -0.0070725316  -0.79778055   
        76   76             325.47527     -34126.13       2418.2605     -3.6685589     -3.7101724      0.041613444    0.007021799   -1.7810068     -0.0076358894  -2.4316368    
        77   77             318.70354     -34134.463      4431.1156     -3.6694548     -3.7102024      0.040747648    0.0068570223  -3.4560719     -0.0081437372  -4.1371222    
        78   78             307.91022     -34140.937      6508.1935     -3.6701508     -3.7095184      0.039367674    0.0067634062  -5.213692      -0.0085634276  -5.8507881    
        79   79             300.20694     -34147.224      7851.0895     -3.6708266     -3.7092093      0.038382777    0.0067750411  -6.2958141     -0.008862632   -6.9977318    
        80   80             303.67267     -34155.641      7850.1646     -3.6717314     -3.7105573      0.038825885    0.0069121548  -6.1483162     -0.0090205452  -7.1129352    
        81   81             316.99212     -34166.572      6609.032      -3.6729065     -3.7134353      0.040528836    0.0071702959  -4.949063      -0.0090367749  -6.1999074    
        82   82             330.27219     -34178.571      4777.444      -3.6741964     -3.7164231      0.042226751    0.0075241687  -3.3252049     -0.0089309937  -4.7262768    
        83   83             334.69083     -34190.27       3194.2355     -3.675454      -3.7182457      0.042791693    0.0079403189  -1.9721207     -0.0087335673  -3.3951481    
        84   84             328.54552     -34201.553      2115.9738     -3.676667      -3.718673       0.042005988    0.0083910575  -1.0997581     -0.0084716817  -2.4306199    
        85   85             314.84066     -34212.1        1333.5574     -3.6778008     -3.7180545      0.040253762    0.0088585814  -0.50339433    -0.0081650092  -1.6921463    
        86   86             298.00457     -34221.568      660.90864     -3.6788185     -3.7169197      0.038101194    0.0093307761  -0.00010534899 -0.0078285693  -1.0462184    
        87   87             282.04526     -34229.542     -10.144745     -3.6796757     -3.7157365      0.036060726    0.0097974956   0.50106601    -0.0074754148  -0.4004137    
        88   88             270.17766     -34235.897     -759.64606     -3.680359      -3.7149024      0.034543401    0.010248721    1.0470196     -0.0071184779   0.32564076   
        89   89             264.09289     -34240.835     -1490.5439     -3.6808898     -3.7146552      0.033765437    0.010673618    1.5626781     -0.0067721616   1.039881     
        90   90             262.91166     -34244.541     -2030.7584     -3.6812881     -3.7149025      0.033614411    0.011062064    1.9214641     -0.0064505001   1.5814738    
        91   91             264.23888     -34247.264     -2277.427      -3.6815809     -3.715365       0.033784102    0.011407205    2.0423439     -0.0061639672   1.8621188    
        92   92             265.99721     -34249.285     -2157.3422     -3.6817982     -3.7158071      0.034008913    0.011707066    1.8599274     -0.0059177489   1.8294892    
        93   93             267.00816     -34250.93      -1694.9345     -3.681975      -3.7161132      0.034138167    0.011965832    1.3943086     -0.0057107494   1.5061268    
        94   94             266.62204     -34252.155     -1054.5805     -3.6821066     -3.7161954      0.034088799    0.012193382    0.82458525    -0.0055361001   0.98533677   
        95   95             265.09046     -34252.912     -362.84233     -3.682188      -3.716081       0.033892981    0.012401608    0.32589087    -0.0053830745   0.30647158   
        96   96             263.21531     -34253.22       324.18219     -3.6822212     -3.7158744      0.033653234    0.012600835   -0.043878781   -0.0052379131  -0.48526835   
        97   97             261.42248     -34252.977      971.59223     -3.6821951     -3.7156191      0.033424013    0.012798673   -0.31535744    -0.0050847541  -1.2933645    
        98   98             260.34388     -34252.074      1515.4826     -3.682098      -3.7153841      0.033286109    0.013000657   -0.54388581    -0.004907574   -1.9565553    
        99   99             261.13366     -34250.751      1798.182      -3.6819558     -3.7153428      0.033387086    0.013211393   -0.66238627    -0.0046933974  -2.2846627    
       100   100            263.39999     -34248.956      1793.4981     -3.6817627     -3.7154396      0.033676846    0.013433209   -0.63439762    -0.0044360546  -2.2773739    
       101   101            265.08033     -34246.274      1641.7245     -3.6814745     -3.7153662      0.033891685    0.01366543    -0.54548705    -0.0041361223  -2.087368     
       102   102            265.63802     -34242.618      1440.7585     -3.6810814     -3.7150444      0.033962989    0.013906149   -0.4466918     -0.0037978152  -1.825676     
       103   103            266.90382     -34238.302      1117.062      -3.6806175     -3.7147423      0.034124827    0.014153274   -0.25247475    -0.0034267395  -1.454722     
       104   104            270.18982     -34233.287      540.98253     -3.6800784     -3.7146233      0.034544956    0.014402784    0.1520684     -0.0030306381  -0.87482783   
       105   105            275.12263     -34227.237     -257.53806     -3.6794279     -3.7146036      0.035175638    0.014646407    0.73362925    -0.002621375   -0.10288018   
       106   106            281.24495     -34220.09      -1107.1431     -3.6786597     -3.7146181      0.035958403    0.014872333    1.3387115     -0.0022145667   0.73027467   
       107   107            288.78288     -34212.163     -1883.8308     -3.6778075     -3.7147297      0.036922161    0.015068383    1.861834      -0.0018269238   1.5242816    
       108   108            297.91495     -34203.832     -2524.9392     -3.676912      -3.7150017      0.038089735    0.015224174    2.2657917     -0.0014742188   2.2082692    
       109   109            308.38384     -34195.504     -2983.7896     -3.6760166     -3.7154449      0.039428229    0.015331872    2.5337686     -0.0011698593   2.7160419    
       110   110            319.46507     -34187.676     -3239.4686     -3.6751752     -3.7160202      0.040845013    0.015386513    2.6614501     -0.00092356733  3.0152193    
       111   111            329.76639     -34180.708     -3291.2096     -3.6744261     -3.7165882      0.042162083    0.01538607     2.6532914     -0.00074075348  3.101931     
       112   112            337.80712     -34174.848     -3178.998      -3.6737961     -3.7169863      0.043190125    0.015331328    2.5510725     -0.0006224778   3.0046664    
       113   113            342.63125     -34170.383     -2956.9013     -3.6733162     -3.7171231      0.043806911    0.015224996    2.3981088     -0.00056606808  2.7735149    
       114   114            343.3004      -34167.419     -2583.3559     -3.6729975     -3.71689        0.043892466    0.015070803    2.1432377     -0.00056617186  2.3922395    
       115   115            338.87881     -34165.71      -1931.2003     -3.6728138     -3.716141       0.043327145    0.014874522    1.663437      -0.00061446311  1.772221     
       116   116            330.15129     -34164.703     -1008.7266     -3.6727055     -3.7149168      0.042211294    0.014646464    0.93889415    -0.00069789695  0.94643156   
       117   117            320.97165     -34164.153     -86.329029     -3.6726464     -3.7136841      0.041037636    0.01440182     0.19679422    -0.00079943736  0.13850331   
       118   118            315.89684     -34164.211      570.27798     -3.6726527     -3.7130415      0.040388799    0.014155946   -0.30334423    -0.00090261346 -0.46721423   
       119   119            315.92849     -34164.863      837.76635     -3.6727228     -3.7131156      0.040392846    0.013919065   -0.44847148    -0.00099522299 -0.77564906   
       120   120            318.45844     -34165.792      724.98066     -3.6728226     -3.7135389      0.040716311    0.013694024   -0.26001121    -0.0010711891  -0.77490304   
       121   121            321.55023     -34167.08       410.45293     -3.6729611     -3.7140727      0.04111161     0.013476833    0.08107606    -0.0011307214  -0.57789874   
       122   122            324.64476     -34169.259      24.394167     -3.6731953     -3.7147026      0.04150726     0.013260437    0.44945664    -0.0011779691  -0.28222239   
       123   123            326.25645     -34172.143     -361.16581     -3.6735054     -3.7152187      0.041713321    0.013037317    0.78723124    -0.001219014    0.037826718  
       124   124            325.32583     -34175.732     -646.96034     -3.6738912     -3.7154855      0.041594337    0.012800667    1.0124613     -0.0012603555   0.29336266   
       125   125            321.85755     -34180.019     -754.27282     -3.6743521     -3.715503       0.041150902    0.012546059    1.0623414     -0.0013071219   0.41728418   
       126   126            316.4689      -34184.662     -686.06051     -3.6748512     -3.7153131      0.04046194     0.012272691    0.9389396     -0.0013617397   0.40747107   
       127   127            310.63432     -34189.608     -482.00977     -3.6753828     -3.7150988      0.039715963    0.011983293    0.6841027     -0.0014239228   0.28142463   
       128   128            305.14166     -34194.726     -179.01367     -3.6759331     -3.7149468      0.039013702    0.011683238    0.34617884    -0.0014910573   0.055048736  
       129   129            299.5026      -34199.509      151.10599     -3.6764472     -3.7147399      0.038292723    0.011379518   -0.0020868099  -0.0015585484  -0.21063835   
       130   130            294.75731     -34203.747      338.5042      -3.6769028     -3.7145888      0.037686017    0.011079244   -0.22113867    -0.0016210678  -0.35044112   
       131   131            293.51926     -34208.02       236.32649     -3.6773622     -3.7148899      0.037527727    0.010786818   -0.21024171    -0.001675872   -0.21238169   
       132   132            295.73238     -34212.395     -31.211916     -3.6778325     -3.7156432      0.037810684    0.010501924   -0.066801034   -0.0017258131   0.08695331   
       133   133            298.25592     -34216.727     -267.9884      -3.6782981     -3.7164314      0.03813333     0.010221567    0.054248882   -0.0017769376   0.36693601   
       134   134            298.27849     -34220.627     -267.97745     -3.6787174     -3.7168536      0.038136216    0.0099432398  -0.0057864001  -0.0018348338   0.43516886   
       135   135            296.62628     -34224.215     -55.702829     -3.6791031     -3.7170281      0.037924973    0.0096681336  -0.16956684    -0.00190079     0.25212017   
       136   136            295.97846     -34227.858      143.89474     -3.6794947     -3.7173369      0.037842147    0.0093995202  -0.24506432    -0.0019710554   0.0075788658 
       137   137            297.11004     -34231.514      210.52416     -3.6798877     -3.7178746      0.037986824    0.0091388471  -0.18646081    -0.0020406947  -0.13686151   
       138   138            298.78128     -34235.154      151.85556     -3.680279      -3.7184795      0.038200499    0.0088848352  -0.054491044   -0.0021068302  -0.13465424   
       139   139            299.21368     -34238.716      112.9226      -3.6806619     -3.7189177      0.038255784    0.0086347405   0.020849676   -0.0021695461  -0.10632615   
       140   140            297.4886      -34242.085      219.52292     -3.6810241     -3.7190593      0.038035225    0.0083869952  -0.025846526   -0.002229447   -0.20870693   
       141   141            294.18217     -34245.262      474.75104     -3.6813657     -3.7189782      0.037612483    0.0081425117  -0.17117374    -0.0022845222  -0.47989256   
       142   142            290.37493     -34248.261      911.04284     -3.681688      -3.7188137      0.03712571     0.0079041783  -0.44086205    -0.0023294171  -0.95083064   
       143   143            286.46056     -34250.942      1501.2943     -3.6819763     -3.7186016      0.036625241    0.0076773528  -0.83906435    -0.0023548549  -1.5706204    
       144   144            282.56412     -34253.111      2080.4474     -3.6822094     -3.7183365      0.036127064    0.0074699153  -1.2769159     -0.0023486948  -2.1473973    
       145   145            279.9388      -34254.797      2438.7096     -3.6823906     -3.718182       0.035791406    0.0072904511  -1.6008794     -0.0022997841  -2.4739686    
       146   146            280.60877     -34256.383      2356.1163     -3.6825611     -3.7184382      0.035877065    0.0071451572  -1.620888      -0.0022020686  -2.3601638    
       147   147            284.57221     -34257.997      1772.5927     -3.6827347     -3.7191185      0.036383808    0.0070340522  -1.2704669     -0.0020583235  -1.764896     
       148   148            288.68726     -34259.371      953.32659     -3.6828824     -3.7197923      0.036909935    0.0069497105  -0.73827204    -0.0018808841  -0.94326133   
       149   149            288.94687     -34260.235      286.04933     -3.6829753     -3.7199184      0.036943127    0.0068811357  -0.33139076    -0.0016864716  -0.24363141   
       150   150            283.4976      -34260.449      32.572688     -3.6829983     -3.7192447      0.036246415    0.0068199723  -0.2941802     -0.0014892092   0.1336949    
       151   151            274.1794      -34259.967      158.05892     -3.6829464     -3.7180015      0.035055041    0.0067653915  -0.61540838    -0.0012966522   0.23447992   
       152   152            265.94402     -34258.881      356.59426     -3.6828297     -3.7168318      0.034002112    0.0067237865  -0.98144543    -0.0011107622   0.25707374   
       153   153            263.70442     -34257.455      317.92509     -3.6826764     -3.7163922      0.033715769    0.006702386   -1.0644939     -0.00093192058  0.3940015    
       154   154            268.22745     -34255.576     -34.928551     -3.6824745     -3.7167685      0.034294059    0.0067026504  -0.77318492    -0.00076278929  0.68569563   
       155   155            276.28972     -34252.842     -529.98043     -3.6821806     -3.7175054      0.035324855    0.0067184907  -0.27349116    -0.00060909815  1.0125314    
       156   156            284.73351     -34249.307     -944.65548     -3.6818005     -3.718205       0.036404431    0.0067396852   0.18198187    -0.0004772247   1.2552575    
       157   157            292.00751     -34245.383     -1210.9777     -3.6813786     -3.7187131      0.037334443    0.0067570063   0.48126211    -0.00037180251  1.4114701    
       158   158            297.07775     -34241.236     -1314.6563     -3.6809328     -3.7189155      0.037982696    0.0067644659   0.58434175    -0.00029568818  1.4974609    
       159   159            299.59658     -34236.982     -1253.8416     -3.6804755     -3.7187803      0.038304739    0.0067600892   0.49466603    -0.0002503034   1.5085081    
       160   160            300.30598     -34232.819     -1053.8084     -3.680028      -3.7184235      0.03839544     0.0067458054   0.26988582    -0.00023555408  1.4295617    
       161   161            300.09776     -34228.83      -725.59555     -3.6795992     -3.717968       0.038368817    0.0067262452  -0.036909124   -0.00024954463  1.2219216    
       162   162            299.42783     -34224.865     -326.1275      -3.6791729     -3.7174561      0.038283165    0.0067076432  -0.3464469     -0.00028782291  0.89433366   
       163   163            298.91241     -34220.936      109.61299     -3.6787506     -3.7169679      0.038217265    0.0066962244  -0.62167278    -0.00034358328  0.46090906   
       164   164            299.14288     -34217.05       615.51037     -3.6783329     -3.7165797      0.038246732    0.0066974576  -0.89978893    -0.00040797516 -0.10285388   
       165   165            300.31488     -34213.18       1084.7906     -3.6779168     -3.7163134      0.038396578    0.0067168148  -1.1265475     -0.00046963548 -0.6706233    
       166   166            302.50753     -34209.292      1308.3785     -3.6774988     -3.7161758      0.038676918    0.0067586793  -1.1789606     -0.00051724082 -1.007537     
       167   167            306.36412     -34205.427      1175.5239     -3.6770834     -3.7162534      0.03917        0.0068238819  -1.0022795     -0.00054420048 -0.97658396   
       168   168            312.41201     -34202.015      664.48071     -3.6767166     -3.7166599      0.039943249    0.0069086335  -0.58155902    -0.00055134452 -0.55325525   
       169   169            318.32533     -34199.026     -75.065029     -3.6763953     -3.7170946      0.040699293    0.0070042673  -0.026110997   -0.00054733896  0.12042937   
       170   170            319.94806     -34196.147     -698.08637     -3.6760858     -3.7169926      0.040906765    0.0070994852   0.40825317    -0.00054576993  0.71929346   
       171   171            315.783       -34193.413     -975.72899     -3.6757919     -3.7161662      0.040374244    0.0071855378   0.57338381    -0.00055859269  1.0054206    
       172   172            308.27427     -34191.098     -989.14445     -3.675543      -3.7149573      0.039414221    0.007259187    0.55442835    -0.00059138753  1.0304017    
       173   173            300.96264     -34189.23      -977.81747     -3.6753422     -3.7138216      0.038479396    0.0073209381   0.53566385    -0.00064445401  1.0169229    
       174   174            295.85231     -34187.612     -1079.1665     -3.6751683     -3.7129943      0.037826018    0.0073712876   0.60223252    -0.00071731846  1.1150895    
       175   175            293.19421     -34186.003     -1249.6744     -3.6749954     -3.7124815      0.037486168    0.0074090065   0.69875639    -0.0008117443   1.3085926    
       176   176            292.6679      -34184.279     -1377.6172     -3.67481       -3.7122289      0.037418877    0.007432274    0.73943242    -0.00093138197  1.4936752    
       177   177            294.32732     -34182.425     -1390.7342     -3.6746106     -3.7122417      0.037631041    0.007440414    0.68689772    -0.0010796731   1.5818093    
       178   178            298.71182     -34180.502     -1318.2926     -3.674404      -3.7125956      0.038191619    0.0074346371   0.5928974     -0.0012580816   1.566474     
       179   179            306.05327     -34178.691     -1219.1648     -3.6742093     -3.7133396      0.039130255    0.0074169783   0.51637486    -0.0014659844   1.4873353    
       180   180            315.14265     -34177.118     -1052.8619     -3.6740401     -3.7143325      0.040292372    0.0073891      0.41111011    -0.0017014866   1.32361      
       181   181            323.36664     -34175.841     -717.9168      -3.6739029     -3.7152467      0.041343846    0.0073532268   0.18337431    -0.0019610217   0.99904873   
       182   182            328.09526     -34174.855     -159.15744     -3.673797      -3.7157454      0.04194842     0.0073140274  -0.221913      -0.0022378516   0.47572953   
       183   183            328.6447      -34174.117      556.6896      -3.6737175     -3.7157362      0.042018669    0.0072796954  -0.77437873    -0.0025213506  -0.16608065   
       184   184            327.08342     -34173.892      1179.5114     -3.6736934     -3.7155124      0.041819053    0.0072613     -1.2563105     -0.0027986543  -0.72426856   
       185   185            325.74834     -34174.55       1540.8304     -3.6737641     -3.7154125      0.041648357    0.007268375   -1.4625251     -0.0030587126  -1.1189683    
       186   186            324.44078     -34175.911      1732.4037     -3.6739104     -3.7153916      0.04148118     0.0073048114  -1.4401972     -0.0032938562  -1.4590832    
       187   187            322.13599     -34177.673      1795.7771     -3.6740999     -3.7152864      0.041186502    0.0073698681  -1.2376373     -0.0034975859  -1.7710167    
       188   188            319.48528     -34179.95       1759.7721     -3.6743446     -3.7151922      0.040847598    0.0074591915  -0.93111827    -0.0036640314  -2.0280115    
       189   189            318.10947     -34182.748      1640.779      -3.6746455     -3.7153172      0.040671694    0.0075663833  -0.61671644    -0.0037884722  -2.1575312    
       190   190            319.42457     -34186.197      1292.1156     -3.6750162     -3.7158561      0.040839835    0.0076849512  -0.23867771    -0.0038687637  -1.9597847    
       191   191            323.18965     -34190.363      682.70884     -3.6754641     -3.7167853      0.041321217    0.0078071847   0.21838743    -0.0039092814  -1.3946228    
       192   192            327.22219     -34195.077      4.2032001     -3.6759708     -3.7178076      0.041836795    0.0079238551   0.64095059    -0.0039216561  -0.6756596    
       193   193            329.47788     -34200.374     -532.43774     -3.6765402     -3.7186654      0.042125194    0.0080265122   0.92643505    -0.0039204599  -0.062560779  
       194   194            328.77909     -34206.361     -859.47202     -3.6771838     -3.7192196      0.042035851    0.0081095425   1.0562467     -0.0039180186   0.34896811   
       195   195            324.29986     -34212.841     -913.82216     -3.6778804     -3.7193436      0.041463162    0.0081705192   0.98370011    -0.0039225302   0.5024824    
       196   196            316.25253     -34219.434     -692.89002     -3.6785892     -3.7190235      0.040434276    0.0082111135   0.685169      -0.0039369815   0.41757189   
       197   197            306.54648     -34225.96      -323.23369     -3.6792907     -3.7184841      0.039193315    0.0082375324   0.23618034    -0.0039595871   0.23095451   
       198   198            297.46322     -34232.254      124.50632     -3.6799673     -3.7179993      0.038031981    0.0082589542  -0.29891359    -0.0039865561  -0.0023239462 
       199   199            290.35104     -34238.128      537.01091     -3.6805988     -3.7177214      0.037122657    0.0082862031  -0.79954383    -0.004013206   -0.20484736   
       200   200            285.88845     -34243.397      772.27406     -3.6811652     -3.7177173      0.036552095    0.0083293068  -1.1131509     -0.0040355121  -0.28155202   
       201   201            285.1197      -34248.177      739.18243     -3.681679      -3.7181328      0.036453807    0.0083944335  -1.0917594     -0.0040519908  -0.22823579   
       202   202            288.0568      -34252.881      434.4788      -3.6821847     -3.719014       0.036829328    0.0084809485  -0.69616909    -0.0040637591  -0.082707517  
       203   203            291.61761     -34257.211      112.92502     -3.6826502     -3.7199347      0.037284593    0.0085806864  -0.18121559    -0.0040737573  -0.023221844  
       204   204            292.86119     -34260.935      21.756476     -3.6830506     -3.7204942      0.037443591    0.0086831512   0.15719394    -0.004083186   -0.17450368   
       205   205            292.00812     -34264.329      104.76388     -3.6834153     -3.7207498      0.037334521    0.008781499    0.2968261     -0.0040890405  -0.42665361   
       206   206            290.50176     -34267.626      201.91603     -3.6837698     -3.7209117      0.037141927    0.0088729545   0.35869043    -0.0040863364  -0.63658829   
       207   207            288.5075      -34270.728      240.89191     -3.6841033     -3.7209902      0.036886952    0.0089563349   0.42884306    -0.0040709751  -0.76921185   
       208   208            285.27981     -34273.53       260.05743     -3.6844044     -3.7208787      0.036474278    0.0090303006   0.46511411    -0.0040404337  -0.84217439   
       209   209            280.10987     -34275.95       362.66289     -3.6846647     -3.720478       0.035813278    0.0090942072   0.33455875    -0.0039933987  -0.889114     
       210   210            273.26334     -34277.64       529.48091     -3.6848463     -3.7197842      0.034937919    0.0091507815   0.048686692   -0.0039290848  -0.88528834   
       211   211            267.73677     -34278.584      551.63568     -3.6849478     -3.7191791      0.034231323    0.0092058598  -0.12944706    -0.0038477232  -0.74285203   
       212   212            267.52074     -34279.138      253.93144     -3.6850074     -3.7192111      0.034203703    0.0092630521   0.022880181   -0.0037523024  -0.394094     
       213   213            273.22418     -34279.235     -367.78272     -3.6850178     -3.7199507      0.034932913    0.0093192657   0.49650334    -0.0036498953   0.17145338   
       214   214            281.95014     -34278.621     -1097.8003     -3.6849517     -3.7210003      0.036048565    0.0093649473   1.0500065     -0.0035518346   0.8285366    
       215   215            290.3288      -34277.476     -1614.9404     -3.6848287     -3.7219485      0.037119813    0.0093890147   1.3689344     -0.0034711804   1.3516009    
       216   216            295.81126     -34276.09      -1646.758      -3.6846797     -3.7225004      0.03782077     0.0093852235   1.2243109     -0.0034182062   1.5155578    
       217   217            297.2909      -34274.417     -1114.7016     -3.6844998     -3.7225097      0.038009948    0.009356751    0.59910673    -0.0033959305   1.2121139    
       218   218            296.6292      -34272.56      -267.80987     -3.6843002     -3.7222256      0.037925347    0.0093164537  -0.19778895    -0.0033980202   0.5542331    
       219   219            297.22293     -34270.764      539.56696     -3.6841071     -3.7221084      0.038001258    0.0092805353  -0.81623469    -0.0034111308  -0.21066377   
       220   220            301.12147     -34268.945      949.83536     -3.6839116     -3.7224113      0.038499703    0.0092614435  -1.0145194     -0.0034199076  -0.71486759   
       221   221            308.52153     -34267.355      869.01172     -3.6837407     -3.7231865      0.039445833    0.0092630268  -0.81912121    -0.0034143367  -0.76480329   
       222   222            317.02161     -34266.096      566.98076     -3.6836053     -3.7241379      0.040532606    0.0092811506  -0.50787209    -0.0033935525  -0.53836168   
       223   223            322.64389     -34265.052      286.82935     -3.683493      -3.7247445      0.04125144     0.0093093801  -0.27844391    -0.0033622078  -0.25696818   
       224   224            323.17296     -34264.293      227.94896     -3.6834115     -3.7247305      0.041319083    0.0093429911  -0.26538972    -0.0033260086  -0.12951573   
       225   225            319.43559     -34264.039      425.75346     -3.6833842     -3.7242255      0.040841244    0.0093816729  -0.46566928    -0.0032875398  -0.22391717   
       226   226            313.78117     -34264.285      649.05335     -3.6834106     -3.7235289      0.040118302    0.0094294279  -0.67368799    -0.0032449372  -0.36410752   
       227   227            308.80007     -34264.942      718.99917     -3.6834813     -3.7229627      0.039481447    0.0094903809  -0.69989858    -0.0031954389  -0.44668353   
       228   228            306.01527     -34266.045      536.74931     -3.6835998     -3.7227252      0.039125397    0.009564948   -0.43858844    -0.0031374562  -0.41213078   
       229   229            304.70932     -34267.28       117.0047      -3.6837326     -3.7226911      0.038958425    0.0096477308   0.065110267   -0.0030717513  -0.23170236   
       230   230            303.54974     -34268.467     -416.808       -3.6838602     -3.7226703      0.038810169    0.0097284753   0.66218673    -0.0030019917   0.046953111  
       231   231            301.76512     -34269.741     -900.30702     -3.6839972     -3.7225792      0.038581996    0.0097951246   1.1718512     -0.0029337757   0.33270853   
       232   232            298.39186     -34271.042     -1153.8228     -3.684137      -3.7222877      0.038150711    0.009837491    1.4204667     -0.0028727964   0.49645456   
       233   233            292.9134      -34272.154     -1102.3716     -3.6842566     -3.7217068      0.037450265    0.0098507563   1.3530441     -0.0028222614   0.46604398   
       234   234            286.96813     -34272.938     -865.75789     -3.6843409     -3.721031       0.036690136    0.0098365404   1.0920629     -0.0027814716   0.31928174   
       235   235            284.06951     -34273.549     -716.26085     -3.6844065     -3.720726       0.036319535    0.0098003672   0.89005978    -0.0027474085   0.26025608   
       236   236            286.37893     -34274.187     -818.49705     -3.6844751     -3.7210899      0.036614805    0.0097465196   0.91748634    -0.0027188332   0.39509045   
       237   237            292.09815     -34274.754     -1031.0358     -3.6845361     -3.7218821      0.037346032    0.0096746007   1.080175      -0.0026983913   0.58100287   
       238   238            297.1402      -34275.016     -1057.7486     -3.6845642     -3.7225549      0.037990681    0.0095814823   1.1146549     -0.0026897256   0.58385163   
       239   239            299.13724     -34274.933     -720.8126      -3.6845553     -3.7228013      0.038246011    0.0094666594   0.81709383    -0.0026927887   0.30743442   
       240   240            298.98996     -34274.697     -125.1313      -3.6845299     -3.7227571      0.038227181    0.0093363469   0.23498802    -0.0027019542  -0.12058946   
       241   241            298.91868     -34274.458      466.1631      -3.6845042     -3.7227223      0.038218068    0.009202453   -0.40000469    -0.0027086181  -0.48890927   
       242   242            299.92313     -34274.321      892.90601     -3.6844895     -3.722836       0.038346491    0.0090778414  -0.89703244    -0.0027054465  -0.71740774   
       243   243            300.85707     -34274.185      1191.9267     -3.6844748     -3.7229407      0.038465899    0.0089724669  -1.237703      -0.0026879629  -0.88594009   
       244   244            300.19344     -34273.885      1454.7853     -3.6844427     -3.7228237      0.038381051    0.0088930347  -1.4941658     -0.0026529266  -1.0746394    
       245   245            298.48071     -34273.462      1610.3098     -3.6843972     -3.7225592      0.038162071    0.0088444912  -1.6083901     -0.0025967202  -1.2154998    
       246   246            298.22097     -34273.168      1448.7699     -3.6843656     -3.7224944      0.038128862    0.0088288708  -1.4114225     -0.0025167089  -1.1185091    
       247   247            300.74856     -34273.233      872.9168      -3.6843726     -3.7228246      0.038452025    0.00884191    -0.84570928    -0.0024150275  -0.67550149   
       248   248            303.81094     -34273.304      89.573461     -3.6843802     -3.7232238      0.038843564    0.0088719363  -0.10413611    -0.0023007036  -0.044715769  
       249   249            304.60151     -34272.996     -569.41186     -3.6843471     -3.7232918      0.038944642    0.0089038223   0.51689011    -0.0021864447   0.49776796   
       250   250            303.54678     -34272.648     -997.35627     -3.6843097     -3.7231195      0.03880979     0.008925001    0.93422185    -0.0020830929   0.83985234   
       251   251            302.30843     -34272.585     -1237.7439     -3.6843029     -3.7229543      0.038651462    0.0089271268   1.2058678     -0.0019973975   0.99066111   
       252   252            300.93743     -34272.665     -1320.1004     -3.6843115     -3.7227877      0.038476174    0.0089048699   1.3677515     -0.0019322276   0.96813033   
       253   253            299.06313     -34272.696     -1234.4862     -3.6843148     -3.7225514      0.038236535    0.0088551661   1.3845788     -0.0018869607   0.80097619   
       254   254            297.50027     -34272.795     -1043.4148     -3.6843254     -3.7223621      0.038036717    0.0087779129   1.2739759     -0.0018580855   0.58309547   
       255   255            297.16089     -34272.994     -828.73841     -3.6843468     -3.7223402      0.037993326    0.0086755865   1.1013305     -0.0018411048   0.38585128   
       256   256            297.80659     -34273.251     -539.42296     -3.6843745     -3.7224504      0.038075882    0.008551897    0.83343205    -0.0018319723   0.1521235    
       257   257            298.16955     -34273.396     -22.345307     -3.6843901     -3.7225124      0.038122288    0.0084124465   0.35368271    -0.0018259466  -0.26247342   
       258   258            297.62524     -34273.166      696.34745     -3.6843654     -3.7224181      0.038052695    0.0082670649  -0.32357981    -0.0018147113  -0.82805245   
       259   259            297.72824     -34272.763      1354.6462     -3.6843221     -3.7223879      0.038065863    0.0081294792  -0.9918261     -0.0017870034  -1.3048277    
       260   260            300.06463     -34272.592      1766.0073     -3.6843037     -3.7226683      0.038364582    0.0080131081  -1.4783577     -0.0017334304  -1.544184     
       261   261            303.28565     -34272.605      1926.6445     -3.684305      -3.7230814      0.038776403    0.0079275828  -1.7543229     -0.0016494221  -1.5647462    
       262   262            304.97906     -34272.499      1918.6064     -3.6842936     -3.7232865      0.038992914    0.0078782045  -1.8818638     -0.0015348148  -1.4404201    
       263   263            305.18736     -34272.497      1726.0906     -3.6842934     -3.7233129      0.039019546    0.0078672402  -1.8660576     -0.001392338   -1.1384964    
       264   264            305.10804     -34272.816      1301.4137     -3.6843277     -3.7233371      0.039009404    0.0078940518  -1.668625      -0.0012282484  -0.61726571   
       265   265            304.59231     -34273.248      728.87284     -3.6843741     -3.7233176      0.038943466    0.0079543461  -1.3054442     -0.001053142   -0.0016450218 
       266   266            302.80884     -34273.587      162.15106     -3.6844106     -3.7231261      0.038715441    0.0080405207  -0.84774792    -0.00087942654  0.5228941    
       267   267            299.74663     -34273.797     -286.84069     -3.6844332     -3.7227571      0.038323924    0.0081431241  -0.37785573    -0.00071759618  0.8472317    
       268   268            296.32049     -34273.92      -627.67526     -3.6844464     -3.7223323      0.037885877    0.0082525302   0.074102198   -0.00057405791  1.0092541    
       269   269            293.62472     -34273.951     -926.85896     -3.6844497     -3.7219909      0.037541211    0.0083595475   0.50064858    -0.00045191753  1.1198903    
       270   270            292.24034     -34273.899     -1184.1821     -3.6844442     -3.7218084      0.037364211    0.0084555675   0.85177487    -0.00035322593  1.2243789    
       271   271            291.87238     -34273.713     -1343.4951     -3.6844241     -3.7217413      0.037317166    0.0085335733   1.0653167     -0.0002798932   1.2912504    
       272   272            291.84456     -34273.384     -1362.8499     -3.6843888     -3.7217024      0.03731361     0.0085893879   1.1169313     -0.00023305773  1.2771858    
       273   273            291.43075     -34272.998     -1180.7049     -3.6843473     -3.721608       0.037260702    0.0086221459   0.98312744    -0.00021222248  1.1028818    
       274   274            289.6727      -34272.394     -732.88932     -3.6842823     -3.7213183      0.037035928    0.0086347446   0.64584073    -0.00021367684  0.67992725   
       275   275            286.91368     -34271.26      -136.67804     -3.6841604     -3.7208436      0.036683175    0.0086341779   0.21714456    -0.00022874972  0.097610087  
       276   276            286.26118     -34269.838      341.54679     -3.6840076     -3.7206073      0.03659975     0.0086292328  -0.096073183   -0.000245644   -0.40095156   
       277   277            290.24362     -34268.53       509.68276     -3.683867      -3.7209759      0.037108922    0.008626286   -0.16045972    -0.00025434151 -0.62598208   
       278   278            296.74325     -34267.195      421.21865     -3.6837235     -3.7216634      0.037939928    0.0086266242  -0.049324708   -0.00025039495 -0.59824971   
       279   279            301.19151     -34265.465      390.66765     -3.6835375     -3.7220462      0.038508658    0.0086279709  -0.027708034   -0.00023446421 -0.58689452   
       280   280            301.51847     -34263.483      623.91753     -3.6833245     -3.7218749      0.038550461    0.0086298804  -0.24652229    -0.00020687415 -0.78770467   
       281   281            299.23209     -34261.402      935.37436     -3.6831007     -3.7213589      0.038258138    0.0086367778  -0.57380774    -0.00016368841 -1.0144549    
       282   282            297.69552     -34259.476      990.42348     -3.6828936     -3.7209553      0.03806168     0.0086552491  -0.78874038    -0.00010047965 -0.91262887   
       283   283            298.78816     -34257.826      669.88824     -3.6827163     -3.7209177      0.038201379    0.0086895541  -0.80641095    -1.9448271e-05 -0.35762016   
       284   284            300.99456     -34256.104      134.46374     -3.6825311     -3.7210146      0.038483477    0.0087399262  -0.6907565      6.8125275e-05  0.44185591   
       285   285            302.20526     -34254.086     -376.15088     -3.6823143     -3.7209525      0.038638271    0.0088038976  -0.51806227     0.0001461365   1.149866     
       286   286            302.36218     -34252.049     -766.45449     -3.6820953     -3.7207536      0.038658334    0.0088778651  -0.27889745     0.00020043892  1.5906759    
       287   287            302.22494     -34250.2       -1058.2569     -3.6818965     -3.7205373      0.038640787    0.0089569057   0.055924931    0.00022236226  1.769478     
       288   288            301.8862      -34248.439     -1205.9507     -3.6817072     -3.7203046      0.038597478    0.0090341952   0.39827361     0.00020857002  1.6955837    
       289   289            301.70398     -34246.629     -1189.9303     -3.6815126     -3.7200868      0.03857418     0.0091028083   0.63964073     0.00016083313  1.4450918    
       290   290            303.12262     -34244.926     -1074.658      -3.6813296     -3.7200852      0.03875556     0.0091579206   0.75188373     8.4460083e-05  1.1560375    
       291   291            307.14458     -34243.44      -912.03579     -3.6811698     -3.7204396      0.039269784    0.0091973634   0.75459881    -1.4506911e-05  0.89347908   
       292   292            313.21988     -34242.153     -717.30651     -3.6810315     -3.721078       0.040046538    0.0092212067   0.68462507    -0.00013060679  0.63952135   
       293   293            320.03668     -34241.128     -498.59657     -3.6809213     -3.7218394      0.040918096    0.0092309942   0.5769464     -0.00025859679  0.36954649   
       294   294            326.32399     -34240.564     -282.85083     -3.6808606     -3.7225826      0.041721957    0.0092290218   0.45835034    -0.00039295743  0.10879064   
       295   295            330.72405     -34240.682     -53.627497     -3.6808733     -3.7231578      0.042284523    0.0092177882   0.30559276    -0.00052840226 -0.13883362   
       296   296            331.53733     -34241.564      280.28997     -3.6809681     -3.7233566      0.042388504    0.0092004642   0.026668275   -0.00065995468 -0.4351837    
       297   297            327.40298     -34243.054      794.08787     -3.6811283     -3.7229882      0.04185991     0.00918275    -0.46212874    -0.00078170418 -0.8291699    
       298   298            319.19143     -34244.906      1352.8258     -3.6813274     -3.7221374      0.040810028    0.0091745501  -1.0294781     -0.00088583317 -1.2288746    
       299   299            310.43684     -34247.297      1713.7743     -3.6815844     -3.7212751      0.039690715    0.0091872796  -1.4190017     -0.00096447513 -1.4763536    
       300   300            303.95543     -34250.218      1715.5531     -3.6818985     -3.7207605      0.038862038    0.0092286623  -1.4631536     -0.0010128784  -1.4573026    
       301   301            299.73083     -34253.27       1364.533      -3.6822265     -3.7205484      0.038321904    0.0092993703  -1.1801066     -0.0010316688  -1.1585848    
       302   302            297.20175     -34256.137      835.36202     -3.6825347     -3.7205333      0.03799855     0.0093934471  -0.77029773    -0.0010270692  -0.67642488   
       303   303            296.48714     -34259.014      201.63386     -3.682844      -3.7207512      0.037907184    0.0095024149  -0.33088435    -0.0010089296  -0.047028496  
       304   304            296.40896     -34261.789     -450.1566      -3.6831424     -3.7210395      0.037897188    0.0096172588   0.07686489    -0.00098997637  0.64057968   
       305   305            295.16003     -34264.2       -986.65336     -3.6834015     -3.721139       0.037737507    0.0097296706   0.39643453    -0.00098400818  1.2208637    
       306   306            292.6606      -34266.412     -1344.649      -3.6836393     -3.7210572      0.037417944    0.0098331893   0.62651755    -0.001002566    1.5954208    
       307   307            289.71763     -34268.605     -1542.132      -3.6838751     -3.7209167      0.037041672    0.0099232161   0.78944206    -0.0010529735   1.779437     
       308   308            286.29922     -34270.651     -1558.6925     -3.6840949     -3.7206996      0.036604613    0.0099965482   0.84838776    -0.0011386707   1.7747745    
       309   309            282.15521     -34272.358     -1307.9166     -3.6842785     -3.7203533      0.036074784    0.010052118    0.73086964    -0.0012592811   1.4997768    
       310   310            277.78547     -34273.63      -754.96013     -3.6844152     -3.7199313      0.035516093    0.010092445    0.42946899    -0.0014090045   0.89434296   
       311   311            274.41041     -34274.22      -18.519713     -3.6844786     -3.7195632      0.035084577    0.010123762    0.041625039   -0.0015754616   0.05673649   
       312   312            274.10005     -34274.077      659.63176     -3.6844633     -3.7195082      0.035044896    0.010154006   -0.28817161    -0.0017417252  -0.74987601   
       313   313            278.83312     -34273.455      1051.2004     -3.6843964     -3.7200465      0.03565004     0.010189872   -0.45132016    -0.0018916357  -1.2467607    
       314   314            288.3106      -34272.571      1060.2245     -3.6843014     -3.7211632      0.036861777    0.010234626   -0.40765958    -0.0020153761  -1.3088524    
       315   315            299.52679     -34271.439      782.08277     -3.6841797     -3.7224756      0.038295817    0.010287315   -0.19950738    -0.0021119179  -1.0499006    
       316   316            308.88024     -34270.159      449.45436     -3.6840421     -3.7235338      0.039491696    0.010343658    0.064101715   -0.0021866672  -0.7489461    
       317   317            313.84803     -34268.976      240.92866     -3.6839149     -3.7240417      0.04012685     0.010398283    0.27298118    -0.0022458248  -0.59680769   
       318   318            313.57199     -34267.912      206.55382     -3.6838005     -3.7238921      0.040091557    0.010446967    0.34824615    -0.0022925609  -0.60430406   
       319   319            309.62897     -34267.066      254.28414     -3.6837096     -3.723297       0.039587424    0.010488229    0.31341356    -0.0023268233  -0.64538476   
       320   320            304.98234     -34266.587      203.93779     -3.6836582     -3.7226515      0.038993333    0.010522833    0.2899653     -0.002347887   -0.53839275   
       321   321            301.54524     -34266.402     -33.293224     -3.6836382     -3.7221921      0.038553884    0.010551304    0.35020026    -0.0023579964  -0.20299215   
       322   322            299.41937     -34266.305     -382.3246      -3.6836278     -3.7219098      0.038282083    0.010572468    0.46544624    -0.0023639516   0.26547823   
       323   323            298.00113     -34266.156     -679.75697     -3.6836118     -3.7217126      0.038100754    0.010584043    0.55790004    -0.0023751653   0.67045871   
       324   324            297.03714     -34265.944     -785.71525     -3.683589      -3.7215665      0.037977503    0.010584224    0.55361428    -0.0023997067   0.84926217   
       325   325            296.96691     -34265.595     -719.53704     -3.6835515     -3.72152        0.037968525    0.010573188    0.47655216    -0.0024410539   0.80820531   
       326   326            299.09966     -34265.166     -676.61802     -3.6835053     -3.7217465      0.038241206    0.010552581    0.46016259    -0.0024982552   0.74301623   
       327   327            304.48444     -34264.97      -799.30931     -3.6834842     -3.7224139      0.038929674    0.010522811    0.57690249    -0.0025698827   0.82266472   
       328   328            311.26706     -34265.229     -965.5223      -3.6835121     -3.723309       0.039796862    0.01048158     0.70734776    -0.0026574179   0.96219917   
       329   329            314.47229     -34265.72      -813.88101     -3.6835649     -3.7237716      0.040206665    0.010426332    0.56260793    -0.0027635278   0.84092639   
       330   330            310.27028     -34266.058     -67.375873     -3.6836012     -3.7232707      0.039669419    0.010360111   -0.072246515   -0.0028856386   0.20369898   
       331   331            299.96425     -34266.115      1105.5642     -3.6836074     -3.7219591      0.038351748    0.010295867   -1.0352694     -0.0030108792  -0.82902466   
       332   332            288.94915     -34266.045      2160.2817     -3.6835998     -3.7205433      0.036943419    0.010253096   -1.8540806     -0.0031185791  -1.8066267    
       333   333            282.34719     -34266.059      2582.2614     -3.6836013     -3.7197006      0.036099329    0.010248218   -2.094224      -0.0031893393  -2.2844062    
       334   334            281.87441     -34266.154      2229.6417     -3.6836116     -3.7196505      0.036038882    0.010285808   -1.638946      -0.003213899   -2.1299377    
       335   335            285.74191     -34266.037      1325.8828     -3.683599      -3.7201324      0.036533359    0.010356333   -0.70435316    -0.0031956937  -1.5068185    
       336   336            290.76843     -34265.398      258.05105     -3.6835303     -3.7207063      0.037176021    0.010440621    0.32168065    -0.0031474917  -0.69447946   
       337   337            294.79169     -34264.238     -614.55964     -3.6834056     -3.721096       0.037690414    0.010517783    1.1135023     -0.0030857486   0.0081835682 
       338   338            297.23591     -34262.857     -1165.0355     -3.6832571     -3.72126        0.038002917    0.010571819    1.5831612     -0.0030246114   0.46773416   
       339   339            298.42659     -34261.301     -1503.9163     -3.6830898     -3.721245       0.038155151    0.010593374    1.8390789     -0.0029732663   0.76980694   
       340   340            299.72758     -34259.791     -1798.8938     -3.6829275     -3.721249       0.038321489    0.010577496    2.0205821     -0.0029376848   1.0684863    
       341   341            301.83975     -34258.678     -2080.8365     -3.6828078     -3.7213994      0.038591538    0.010520781    2.1517577     -0.0029237266   1.396079     
       342   342            302.70592     -34257.738     -2168.7105     -3.6827068     -3.7214091      0.038702283    0.010420881    2.1029343     -0.0029377848   1.5739245    
       343   343            300.44343     -34256.623     -1857.9934     -3.682587      -3.721          0.038413013    0.010279119    1.7353718     -0.0029832061   1.3908768    
       344   344            296.58744     -34255.405     -1225.6584     -3.682456      -3.720376       0.037920008    0.010103273    1.1001568     -0.0030560899   0.927206     
       345   345            294.20718     -34254.107     -518.28146     -3.6823165     -3.7199322      0.037615681    0.0099064842   0.37765307    -0.0031469539   0.42533742   
       346   346            294.98121     -34252.59       70.041481     -3.6821534     -3.719868       0.037714644    0.009703548   -0.25876301    -0.0032456279   0.044897752  
       347   347            298.89012     -34250.79       438.85717     -3.6819599     -3.7201743      0.038214415    0.0095073916  -0.69038403    -0.0033444509  -0.16150023   
       348   348            305.11718     -34248.897      585.60983     -3.6817564     -3.720767       0.039010572    0.0093266883  -0.88432993    -0.0034393003  -0.2241466    
       349   349            311.98832     -34247.171      615.30629     -3.6815709     -3.72146        0.039889078    0.0091652326  -0.91099173    -0.0035289571  -0.25234175   
       350   350            316.91405     -34245.673      686.7344      -3.6814099     -3.7219288      0.040518855    0.009023408   -0.90251493    -0.0036128996  -0.38244713   
       351   351            317.86926     -34244.405      903.04646     -3.6812735     -3.7219145      0.040640982    0.0089008859  -0.95546143    -0.0036885778  -0.69155283   
       352   352            314.87307     -34243.411      1215.7878     -3.6811667     -3.7214246      0.040257906    0.0087985823  -1.0634313     -0.0037498928  -1.1037206    
       353   353            309.79269     -34242.789      1419.9196     -3.6810999     -3.7207082      0.039608356    0.008718518   -1.1202989     -0.0037887388  -1.3770629    
       354   354            304.7052      -34242.596      1372.2207     -3.681079      -3.7200369      0.038957899    0.0086616691  -1.0589312     -0.0037998374  -1.336542     
       355   355            300.48412     -34242.644      1068.5994     -3.6810843     -3.7195025      0.038418216    0.008626621   -0.86491014    -0.0037842023  -0.99231046   
       356   356            297.19769     -34242.69       599.16082     -3.6810891     -3.7190872      0.037998031    0.0086092961  -0.54302492    -0.0037488892  -0.49594028   
       357   357            295.29816     -34242.6        95.173543     -3.6810795     -3.7188347      0.037755168    0.0086030684  -0.12598648    -0.0037039335  -0.042545327  
       358   358            295.68499     -34242.453     -418.29614     -3.6810637     -3.7188684      0.037804626    0.0085994408   0.39598703    -0.0036584419   0.31255384   
       359   359            298.51719     -34242.32      -920.37758     -3.6810494     -3.7192161      0.038166735    0.0085878599   0.97575767    -0.0036194975   0.58167221   
       360   360            302.63839     -34242.249     -1302.1883     -3.6810417     -3.7197354      0.038693649    0.008556682    1.4632354     -0.0035924194   0.73086161   
       361   361            306.17411     -34242.289     -1460.2919     -3.6810461     -3.7201918      0.039145706    0.0084962123   1.7372296     -0.0035800971   0.70539876   
       362   362            307.83483     -34242.424     -1362.5516     -3.6810606     -3.7204187      0.039358036    0.0084011393   1.7577894     -0.0035819161   0.49267625   
       363   363            308.03836     -34242.723     -1098.9113     -3.6810928     -3.7204768      0.039384059    0.0082713093   1.5754187     -0.0035935322   0.20178067   
       364   364            308.1288      -34243.354     -800.12478     -3.6811606     -3.7205562      0.039395621    0.0081106677   1.2721392     -0.0036090749  -0.019709831  
       365   365            308.29442     -34244.309     -522.97754     -3.6812632     -3.72068        0.039416797    0.00792557     0.90273796    -0.0036241008  -0.12728256   
       366   366            307.29937     -34245.349     -198.93363     -3.681375      -3.7206646      0.039289575    0.0077236545   0.45746939    -0.0036364703  -0.22953807   
       367   367            304.58667     -34246.284      239.26706     -3.6814755     -3.7204183      0.038942745    0.0075140261  -0.081889418   -0.003644166   -0.42638875   
       368   368            301.70609     -34247.134      672.82962     -3.6815669     -3.7201413      0.038574449    0.007307608   -0.61787259    -0.003643302   -0.61689468   
       369   369            301.14343     -34248.101      920.29491     -3.6816709     -3.7201734      0.038502511    0.0071151637  -1.0139035     -0.0036301478  -0.6327107    
       370   370            303.75107     -34249.359      939.26058     -3.6818061     -3.720642       0.03883591     0.0069445513  -1.225119      -0.0036044785  -0.45055609   
       371   371            307.55373     -34250.896      865.47832     -3.6819714     -3.7212935      0.039322097    0.0067998482  -1.3236091     -0.0035700112  -0.23020911   
       372   372            309.3295      -34252.56       910.2823      -3.6821502     -3.7216993      0.039549136    0.0066828346  -1.4491772     -0.0035311952  -0.18490548   
       373   373            307.73471     -34254.222      1089.8978     -3.6823289     -3.7216741      0.039345235    0.0065958243  -1.6123027     -0.0034889631  -0.3244991    
       374   374            304.67374     -34256.176      1191.6797     -3.682539      -3.7214928      0.038953877    0.0065418721  -1.6697601     -0.0034405598  -0.42961847   
       375   375            302.10833     -34258.659      1061.3886     -3.6828059     -3.7214317      0.038625878    0.0065218907  -1.5293669     -0.0033839352  -0.33368505   
       376   376            299.28894     -34261.22       754.24667     -3.6830812     -3.7213466      0.038265406    0.0065328139  -1.2437437     -0.0033210557  -0.079803994  
       377   377            295.73355     -34263.467      421.21954     -3.6833227     -3.7211336      0.037810834    0.0065686814  -0.91449447    -0.0032570186   0.17437769   
       378   378            293.35685     -34265.708      75.543894     -3.6835636     -3.7210706      0.037506962    0.0066226996  -0.52831354    -0.0031968931   0.38766991   
       379   379            293.1527      -34268.035     -290.51107     -3.6838138     -3.7212947      0.037480861    0.006686977   -0.070747697   -0.0031449003   0.55597152   
       380   380            293.53609     -34270.158     -545.44803     -3.6840419     -3.7215718      0.037529879    0.006752239    0.3357051     -0.0031043372   0.58097306   
       381   381            292.95245     -34271.92      -567.58089     -3.6842314     -3.7216867      0.037455258    0.0068103008   0.55493366    -0.0030756229   0.39618327   
       382   382            291.8449      -34273.456     -396.84557     -3.6843965     -3.7217102      0.037313653    0.0068568003   0.58271704    -0.003054993    0.073209936  
       383   383            291.57458     -34274.955     -167.74588     -3.6845576     -3.7218367      0.037279092    0.006891258    0.50847593    -0.0030359546  -0.25215993   
       384   384            292.40131     -34276.426      52.217779     -3.6847158     -3.7221006      0.037384792    0.0069152518   0.3893751     -0.0030120116  -0.52098384   
       385   385            293.40795     -34277.689      265.59154     -3.6848516     -3.7223651      0.037513496    0.006931252    0.23515542    -0.0029778389  -0.74109565   
       386   386            294.33565     -34278.703      432.76102     -3.6849605     -3.7225926      0.037632107    0.0069424187   0.07962492    -0.0029291183  -0.87395362   
       387   387            296.17932     -34279.689      454.84882     -3.6850665     -3.7229344      0.037867828    0.006951917   -0.011065132   -0.002863299   -0.81819432   
       388   388            299.42489     -34280.771      287.64436     -3.6851829     -3.7234656      0.038282788    0.0069615847  -0.018384093   -0.0027816068  -0.52126861   
       389   389            303.08827     -34281.868     -9.4006032     -3.6853008     -3.724052       0.038751167    0.0069715681   0.011613971   -0.0026900679  -0.040650868  
       390   390            305.70387     -34283.011     -300.26731     -3.6854237     -3.7245093      0.039085583    0.0069812609  -0.0013746284  -0.0025983336   0.47351147   
       391   391            305.97764     -34284.309     -443.74871     -3.6855632     -3.7246838      0.039120586    0.0069909269  -0.14290848    -0.0025166629   0.86751026   
       392   392            302.96591     -34285.759     -330.21122     -3.6857191     -3.7244546      0.038735523    0.0070034175  -0.48777141    -0.0024528509   1.0284164    
       393   393            296.92647     -34287.245      29.569786     -3.6858789     -3.7238422      0.037963354    0.0070256611  -0.98910097    -0.0024099892   0.92683898   
       394   394            289.76227     -34288.828      462.48882     -3.686049      -3.7230963      0.03704738     0.0070676932  -1.4360446     -0.0023859091   0.64662237   
       395   395            283.39964     -34290.418      836.05642     -3.6862199     -3.7224538      0.03623389     0.0071383882  -1.7063823     -0.0023748899   0.29017451   
       396   396            279.20529     -34291.731      1060.9237     -3.6863611     -3.7220587      0.035697624    0.0072430065  -1.7663613     -0.0023697273  -0.02825991   
       397   397            278.60304     -34292.895      1031.0592     -3.6864862     -3.7221068      0.035620623    0.0073825394  -1.5433677     -0.002364024   -0.20233403   
       398   398            281.3505      -34293.854      772.73068     -3.6865893     -3.7225612      0.035971898    0.0075522704  -1.0606059     -0.0023543076  -0.24802367   
       399   399            285.22371     -34294.256      451.04875     -3.6866325     -3.7230996      0.036467105    0.0077422743  -0.50703511    -0.002339692   -0.25159154   
       400   400            288.72213     -34294.03       173.21638     -3.6866082     -3.7235226      0.036914393    0.0079412554  -0.047848424   -0.0023201384  -0.23216767   
       401   401            292.08624     -34293.419     -49.717045     -3.6865425     -3.723887       0.037344509    0.0081398882   0.2749555     -0.0022960673  -0.17430524   
       402   402            295.49801     -34292.571     -235.75348     -3.6864514     -3.7242321      0.037780719    0.0083316547   0.50258986    -0.0022686647  -0.095460387  
       403   403            297.99268     -34291.432     -333.30843     -3.6863289     -3.7244286      0.038099674    0.0085119973   0.64274475    -0.0022395286  -0.09185869   
       404   404            298.38813     -34289.947     -250.90661     -3.6861693     -3.7243195      0.038150233    0.0086781536   0.66077792    -0.0022087423  -0.28022069   
       405   405            296.48547     -34288.08      -8.8985916     -3.6859686     -3.7238755      0.037906971    0.0088298475   0.55845229    -0.0021725487  -0.62362525   
       406   406            293.60574     -34285.811      238.61886     -3.6857247     -3.7232635      0.037538784    0.0089692402   0.40389159    -0.0021241128  -0.92393161   
       407   407            292.07072     -34283.184      314.08411     -3.6854423     -3.7227849      0.037342526    0.0090995372   0.30130802    -0.0020575047  -0.97724041   
       408   408            293.57828     -34280.193      106.8235      -3.6851207     -3.722656       0.037535273    0.0092228732   0.33694607    -0.001971774   -0.67501718   
       409   409            297.81949     -34276.749     -347.1666      -3.6847505     -3.722828       0.038077531    0.0093385713   0.51227995    -0.0018730934  -0.075471414  
       410   410            302.77143     -34272.77      -836.63237     -3.6843227     -3.7230334      0.038710658    0.0094431288   0.70577607    -0.001773553    0.58200279   
       411   411            306.39949     -34268.477     -1111.8181     -3.6838612     -3.7230358      0.039174522    0.0095326967   0.74795355    -0.0016863302   1.0346468    
       412   412            307.51201     -34264.243     -1039.8367     -3.6834062     -3.7227229      0.039316762    0.0096065165   0.53443992    -0.001620417    1.1543586    
       413   413            305.80948     -34260.199     -639.3975      -3.6829714     -3.7220704      0.039099086    0.0096690184   0.077390489   -0.0015780741   0.95894607   
       414   414            302.68075     -34256.353     -102.20749     -3.6825579     -3.721257       0.038699064    0.0097295427  -0.46185516    -0.0015552288   0.61477171   
       415   415            301.28873     -34252.877      266.64947     -3.6821842     -3.7207053      0.038521088    0.0097990367  -0.8175683     -0.0015448513   0.3758024    
       416   416            304.02887     -34249.989      263.92658     -3.6818738     -3.7207452      0.038871427    0.0098846567  -0.81320432    -0.0015420669   0.40854008   
       417   417            309.7215      -34247.599     -42.719857     -3.6816169     -3.7212161      0.039599255    0.0099862113  -0.51354534    -0.0015474814   0.65896761   
       418   418            314.71792     -34245.444     -366.05965     -3.6813852     -3.7216233      0.040238069    0.010097521   -0.17555539    -0.0015660623   0.89350254   
       419   419            316.54977     -34243.579     -464.14777     -3.6811847     -3.721657       0.040472279    0.010211666   -0.01735952    -0.0016024248   0.91888957   
       420   420            315.22391     -34242.17      -332.01961     -3.6810333     -3.721336       0.040302763    0.010325418   -0.052326378   -0.0016569578   0.74079427   
       421   421            312.17204     -34241.215     -101.09907     -3.6809307     -3.7208432      0.039912568    0.010439492   -0.16554256    -0.0017259656   0.46529043   
       422   422            309.19122     -34240.638      86.915055     -3.6808686     -3.7204001      0.039531456    0.010556184   -0.22106311    -0.0018038237   0.19072298   
[...]
     10895   10895          288.83206     -33100.789      125.40671     -3.5583348     -3.5952632      0.036928448    1.0061448     -0.16690117    -0.053523442   -0.23814746   
     10896   10896          292.08396     -33101.927      167.23773     -3.5584571     -3.5958014      0.037344218    1.0062457     -0.23948861    -0.053563249   -0.20340794   
     10897   10897          294.4988      -33102.732      81.920452     -3.5585437     -3.5961967      0.037652966    1.0063465     -0.19872554    -0.053595585   -0.06448516   
     10898   10898          297.4824      -33103.694     -161.32597     -3.5586471     -3.5966816      0.038034433    1.0064473     -0.021938782   -0.053625462    0.19164011   
     10899   10899          300.93024     -33105.049     -521.00752     -3.5587928     -3.5972681      0.038475254    1.0065482      0.26145348    -0.053662067    0.51497471   
     10900   10900          302.12322     -33106.505     -854.34276     -3.5589493     -3.5975771      0.038627781    1.006649       0.53979655    -0.053716959    0.78540043   
     10901   10901          299.76079     -33108.138     -976.49458     -3.5591248     -3.5974505      0.038325735    1.0067498      0.66534389    -0.053799745    0.859214     
     10902   10902          295.14714     -33110.268     -810.57773     -3.5593538     -3.5970897      0.037735859    1.0068507      0.57264972    -0.053912946    0.68570732   
     10903   10903          289.98118     -33112.748     -451.5617      -3.5596204     -3.5966957      0.037075368    1.0069515      0.32810813    -0.054050203    0.35513027   
     10904   10904          286.45354     -33115.391     -78.310538     -3.5599045     -3.5965288      0.036624344    1.0070524      0.066436304   -0.054199566    0.011180785  
     10905   10905          286.91569     -33118.592      197.15476     -3.5602486     -3.596932       0.036683431    1.0071532     -0.12765459    -0.054348662   -0.26274028   
     10906   10906          290.02914     -33122.444      407.5816      -3.5606627     -3.5977442      0.0370815      1.007254      -0.28746623    -0.054487689   -0.48273404   
     10907   10907          290.73136     -33126.355      687.30771     -3.5610832     -3.5982545      0.037171282    1.0073549     -0.52434565    -0.054608823   -0.7359428    
     10908   10908          286.1959      -33129.922      1082.2699     -3.5614666     -3.598058       0.036591404    1.0074557     -0.86775381    -0.05470309    -1.0497494    
     10909   10909          278.9114      -33133.256      1411.3714     -3.5618251     -3.5974851      0.035660049    1.0075565     -1.1601602     -0.054759387   -1.2843516    
     10910   10910          273.3817      -33136.519      1420.0254     -3.5621757     -3.5971288      0.034953052    1.0076574     -1.1882394     -0.054769492   -1.2437625    
     10911   10911          271.50234     -33139.618      995.42497     -3.5625089     -3.5972217      0.034712767    1.0077582     -0.86074659    -0.05473505    -0.84070134   
     10912   10912          271.47801     -33142.035      272.21794     -3.5627688     -3.5974785      0.034709657    1.007859      -0.29469551    -0.054670663   -0.18300869   
     10913   10913          270.88503     -33143.465     -473.623       -3.5629225     -3.5975563      0.034633842    1.0079599      0.27840146    -0.054599984    0.50409025   
     10914   10914          269.14954     -33144.026     -1017.0559     -3.5629828     -3.5973948      0.034411951    1.0080607      0.68174455    -0.05454763     1.0229958    
     10915   10915          267.29424     -33143.925     -1277.4447     -3.562972      -3.5971467      0.034174744    1.0081616      0.86475153    -0.054532104    1.2859386    
     10916   10916          266.77029     -33143.328     -1296.3777     -3.5629078     -3.5970156      0.034107754    1.0082624      0.87314405    -0.05456267     1.312052     
     10917   10917          268.30737     -33142.255     -1122.8956     -3.5627924     -3.5970967      0.034304276    1.0083632      0.75889715    -0.054640066    1.1300472    
     10918   10918          271.447       -33140.552     -780.25771     -3.5626094     -3.5973151      0.034705692    1.0084641      0.54202843    -0.054757569    0.76446594   
     10919   10919          275.18523     -33138.042     -315.47869     -3.5623395     -3.5975232      0.035183642    1.0085649      0.24147636    -0.054901912    0.28134166   
     10920   10920          278.86379     -33134.76       228.03129     -3.5619867     -3.5976407      0.035653961    1.0086657     -0.12968965    -0.055055686   -0.26170128   
     10921   10921          281.91488     -33130.908      813.35949     -3.5615726     -3.5976166      0.036044057    1.0087666     -0.55854788    -0.055199423   -0.81976182   
     10922   10922          283.42243     -33126.646      1352.8708     -3.5611144     -3.5973512      0.036236803    1.0088674     -0.98917326    -0.055313217   -1.3017716    
     10923   10923          283.07695     -33122.287      1725.7784     -3.5606458     -3.5968385      0.036192632    1.0089683     -1.3263263     -0.055379974   -1.6010942    
     10924   10924          281.4883      -33118.24       1873.1946     -3.5602108     -3.5962003      0.035989517    1.0090691     -1.5116058     -0.055389201   -1.6718261    
     10925   10925          279.37354     -33114.548      1777.6397     -3.5598139     -3.5955331      0.035719135    1.0091699     -1.5159083     -0.055338607   -1.5066286    
     10926   10926          277.97809     -33111.141      1429.3822     -3.5594477     -3.5949884      0.035540721    1.0092708     -1.3100955     -0.055234334   -1.1193375    
     10927   10927          279.08287     -33107.959      857.07431     -3.5591055     -3.5947875      0.035681972    1.0093716     -0.89059391    -0.05509043    -0.56947484   
     10928   10928          283.60371     -33104.904      114.71292     -3.5587772     -3.5950372      0.036259981    1.0094724     -0.28298023    -0.054926713    0.065956558  
     10929   10929          290.38208     -33101.929     -664.91235     -3.5584573     -3.595584       0.037126625    1.0095733      0.40153093    -0.054765999    0.67784504   
     10930   10930          296.45404     -33098.996     -1244.2453     -3.5581421     -3.596045       0.037902951    1.0096741      0.95232498    -0.054630191    1.0962457    
     10931   10931          299.1536      -33096.198     -1441.3315     -3.5578413     -3.5960894      0.038248102    1.0097749      1.202962      -0.05453419     1.1898321    
     10932   10932          298.16524     -33093.652     -1257.7341     -3.5575676     -3.5956893      0.038121736    1.0098758      1.1374955     -0.054481202    0.96468546   
     10933   10933          295.42996     -33091.478     -870.36386     -3.5573339     -3.5951059      0.037772019    1.0099766      0.87651522    -0.054462993    0.57780653   
     10934   10934          293.17805     -33089.538     -494.81411     -3.5571254     -3.5946095      0.037484102    1.0100775      0.57668448    -0.054465557    0.22889962   
     10935   10935          292.89563     -33087.707     -261.58537     -3.5569285     -3.5943765      0.037447993    1.0101783      0.33706333    -0.054476306    0.051709329  
     10936   10936          294.89991     -33086.003     -160.94692     -3.5567453     -3.5944495      0.03770425     1.0102791      0.157115      -0.054488855    0.047801682  
     10937   10937          297.80889     -33084.344     -110.39227     -3.556567      -3.5946432      0.038076175    1.01038       -0.0034646075  -0.054503057    0.12598807   
     10938   10938          299.77415     -33082.542     -33.242274     -3.5563732     -3.5947007      0.038327442    1.0104808     -0.16470882    -0.054521707    0.17464096   
     10939   10939          300.77379     -33080.646      93.274467     -3.5561694     -3.5946247      0.038455251    1.0105816     -0.31652698    -0.054546531    0.13621204   
     10940   10940          302.40123     -33078.921      239.76129     -3.555984      -3.5946474      0.038663326    1.0106825     -0.43059007    -0.054576127    0.02336513   
     10941   10941          305.27336     -33077.491      425.03037     -3.5558303     -3.5948608      0.039030541    1.0107833     -0.53260199    -0.054606429   -0.17229473   
     10942   10942          308.24426     -33076.061      643.53998     -3.5556766     -3.595087       0.039410384    1.0108841     -0.63368506    -0.054630422   -0.42846654   
     10943   10943          311.43412     -33074.582      771.49437     -3.5555175     -3.5953357      0.039818221    1.010985      -0.64063137    -0.05463895    -0.62552932   
     10944   10944          316.97919     -33073.616      697.43121     -3.5554137     -3.5959409      0.040527183    1.0110858     -0.47341912    -0.054625012   -0.65014953   
     10945   10945          324.46926     -33073.465      440.45397     -3.5553974     -3.5968823      0.041484821    1.0111867     -0.16240654    -0.054587812   -0.49911969   
     10946   10946          329.49832     -33073.785      193.00158     -3.5554319     -3.5975597      0.042127808    1.0112875      0.12236921    -0.054532855   -0.3278668    
     10947   10947          328.63816     -33074.477      158.37356     -3.5555062     -3.5975241      0.042017834    1.0113883      0.19331021    -0.054466346   -0.307661     
     10948   10948          322.73924     -33075.755      310.71564     -3.5556437     -3.5969073      0.041263631    1.0114892      0.048584181   -0.054389054   -0.41504073   
     10949   10949          315.54119     -33077.673      446.32399     -3.5558499     -3.5961932      0.040343328    1.01159       -0.14881467    -0.054297164   -0.47526324   
     10950   10950          310.84257     -33080.279      365.67388     -3.55613       -3.5958725      0.039742589    1.0116908     -0.21638912    -0.054188566   -0.32351436   
     10951   10951          309.42982     -33083.47       48.391307     -3.556473      -3.596035       0.039561963    1.0117917     -0.10412383    -0.054068766    0.044802711  
     10952   10952          308.27926     -33086.834     -338.43518     -3.5568347     -3.5962495      0.039414858    1.0118925      0.089033609   -0.053951026    0.46837313   
     10953   10953          304.05445     -33089.933     -603.80261     -3.5571678     -3.5960425      0.038874697    1.0119933      0.23616694    -0.053850553    0.75695567   
     10954   10954          297.25549     -33092.73      -712.50208     -3.5574684     -3.5954738      0.038005421    1.0120942      0.31587793    -0.053777654    0.86353282   
     10955   10955          291.61288     -33095.46      -786.72804     -3.5577619     -3.5950459      0.037283989    1.012195       0.41625068    -0.053736059    0.89724697   
     10956   10956          289.9678      -33098.178     -929.57483     -3.5580542     -3.5951278      0.037073658    1.0122959      0.60164825    -0.053726863    0.96108559   
     10957   10957          291.93023     -33100.819     -1079.3959     -3.5583381     -3.5956626      0.037324563    1.0123967      0.80416808    -0.053752235    1.0201124    
     10958   10958          294.60982     -33103.253     -1057.9176     -3.5585997     -3.5962669      0.03766716     1.0124975      0.8635065     -0.053814158    0.94162758   
     10959   10959          295.29446     -33105.256     -763.90048     -3.558815      -3.5965697      0.037754695    1.0125984      0.69033556    -0.053909662    0.64611672   
     10960   10960          294.16612     -33106.786     -286.89566     -3.5589795     -3.5965899      0.037610432    1.0126992      0.35045846    -0.054027987    0.21113433   
     10961   10961          293.67163     -33108.157      171.25183     -3.5591269     -3.5966741      0.037547209    1.0128        -0.010093581   -0.054153409   -0.17743651   
     10962   10962          294.76866     -33109.489      482.91103     -3.5592701     -3.5969576      0.037687469    1.0129009     -0.30128593    -0.054271943   -0.39970538   
     10963   10963          296.36514     -33110.483      655.29634     -3.559377      -3.5972685      0.037891586    1.0130017     -0.51387391    -0.054375639   -0.47427696   
     10964   10964          298.27826     -33111.366      711.83091     -3.5594718     -3.597608       0.038136186    1.0131026     -0.62436118    -0.054461884   -0.45588231   
     10965   10965          300.4654      -33112.41       666.63593     -3.559584      -3.5979998      0.038415822    1.0132034     -0.61699109    -0.054531412   -0.3835418    
     10966   10966          301.28049     -33113.386      564.67215     -3.559689      -3.5982091      0.038520035    1.0133042     -0.53329098    -0.054586889   -0.30062637   
     10967   10967          299.98793     -33114.038      432.2639      -3.5597591     -3.5981139      0.038354775    1.0134051     -0.41926155    -0.054631349   -0.21187617   
     10968   10968          298.97152     -33114.682      248.23037     -3.5598283     -3.5980532      0.038224823    1.0135059     -0.27366196    -0.054668022   -0.079700277  
     10969   10969          300.4158      -33115.665     -2.4719378     -3.559934      -3.5983435      0.03840948     1.0136067     -0.078117176   -0.054701681    0.11036967   
     10970   10970          302.79796     -33116.8       -239.75999     -3.560056      -3.5987701      0.03871405     1.0137076      0.11549684    -0.054739162    0.28506265   
     10971   10971          303.01399     -33117.785     -319.17805     -3.5601619     -3.5989036      0.038741671    1.0138084      0.20015555    -0.054786719    0.31877218   
     10972   10972          300.31579     -33118.571     -217.09715     -3.5602463     -3.598643       0.038396694    1.0139092      0.15648055    -0.054845522    0.2009702    
     10973   10973          297.09145     -33119.332     -55.186585     -3.5603282     -3.5983127      0.037984448    1.0140101      0.07448377    -0.054911298    0.05049028   
     10974   10974          295.90079     -33120.367      54.793587     -3.5604395     -3.5982717      0.037832216    1.0141109      0.036644514   -0.054978621   -0.031980367  
     10975   10975          296.10973     -33121.506      82.409513     -3.5605619     -3.5984208      0.037858931    1.0142118      0.059120342   -0.055044527   -0.023314566  
     10976   10976          295.44857     -33122.371      47.600298     -3.5606549     -3.5984293      0.037774398    1.0143126      0.12003039    -0.055109332    0.04871504   
     10977   10977          293.75488     -33123.068     -27.461985     -3.5607298     -3.5982876      0.037557852    1.0144134      0.19903629    -0.055175626    0.1482462    
     10978   10978          292.27359     -33123.878     -132.00199     -3.5608169     -3.5981853      0.037368463    1.0145143      0.28080715    -0.055246972    0.25628213   
     10979   10979          291.12636     -33124.667     -247.57917     -3.5609017     -3.5981235      0.037221785    1.0146151      0.33337261    -0.055327226    0.36478686   
     10980   10980          290.01777     -33125.389     -314.97996     -3.5609793     -3.5980594      0.037080046    1.0147159      0.30239405    -0.055420243    0.43560768   
     10981   10981          288.7395      -33126.123     -269.71943     -3.5610582     -3.5979748      0.036916614    1.0148168      0.15970059    -0.05552851     0.41114128   
     10982   10982          286.8642      -33126.554     -128.53231     -3.5611045     -3.5977814      0.036676849    1.0149176     -0.043148097   -0.055651087    0.29729392   
     10983   10983          285.57927     -33126.592      34.864593     -3.5611087     -3.5976212      0.036512565    1.0150184     -0.21694072    -0.055783835    0.15112375   
     10984   10984          287.26618     -33126.52       174.10985     -3.5611009     -3.5978291      0.036728244    1.0151193     -0.3178185     -0.055921474    0.013112559  
     10985   10985          291.78081     -33126.318      272.653       -3.5610792     -3.5983847      0.037305459    1.0152201     -0.35223717    -0.056059038   -0.091694389  
     10986   10986          296.23699     -33125.57       393.47204     -3.5609988     -3.598874       0.037875201    1.015321      -0.3944626     -0.056192775   -0.21789601   
     10987   10987          298.77129     -33124.257      562.13352     -3.5608576     -3.5990568      0.038199222    1.0154218     -0.4730458     -0.056318182   -0.40402653   
     10988   10988          299.89699     -33122.591      695.33933     -3.5606786     -3.5990217      0.038343148    1.0155226     -0.52488601    -0.056428632   -0.58250608   
     10989   10989          300.79658     -33120.83       705.59613     -3.5604893     -3.5989474      0.038458165    1.0156235     -0.48825641    -0.056517799   -0.66196006   
     10990   10990          301.32891     -33119          588.57216     -3.5602925     -3.5988187      0.038526225    1.0157243     -0.36632787    -0.056582927   -0.61427902   
     10991   10991          300.40026     -33116.925      409.9656      -3.5600695     -3.5984769      0.038407493    1.0158251     -0.21405793    -0.056625817   -0.48369888   
     10992   10992          298.42812     -33114.473      193.8269      -3.5598059     -3.5979612      0.038155347    1.015926      -0.055250992   -0.056651227   -0.29433695   
     10993   10993          298.46357     -33111.912     -112.26462     -3.5595305     -3.5976904      0.038159879    1.0160268      0.14724011    -0.056666      -0.010459372  
     10994   10994          302.70883     -33109.654     -534.59907     -3.5592878     -3.5979905      0.038702655    1.0161277      0.41803845    -0.056680334    0.38113211   
     10995   10995          308.70885     -33107.495     -929.9564      -3.5590558     -3.5985255      0.039469783    1.0162285      0.66305299    -0.056708245    0.74436105   
     10996   10996          312.35442     -33105.175     -1060.611      -3.5588063     -3.5987422      0.039935885    1.0163293      0.72751139    -0.056762681    0.85438278   
     10997   10997          312.56893     -33103.03      -809.6704      -3.5585757     -3.598539       0.039963312    1.0164302      0.54400101    -0.056847477    0.59331352   
     10998   10998          310.44823     -33101.148     -255.695       -3.5583734     -3.5980656      0.039692171    1.016531       0.17051048    -0.056953176    0.037210666  
     10999   10999          307.67552     -33099.296      348.24896     -3.5581744     -3.597512       0.039337668    1.0166318     -0.2293455     -0.0570598     -0.55125871   
     11000   11000          306.85906     -33097.607      743.08629     -3.5579927     -3.597226       0.039233279    1.0167327     -0.4917355     -0.057146299   -0.90576529   
Loop time of 57.0969 on 64 procs for 10000 steps with 400 atoms

Performance: 15.132 ns/day, 1.586 hours/ns, 175.141 timesteps/s
6192.2% CPU use with 1 MPI tasks x 64 OpenMP threads

MPI task timing breakdown:
Section |  min time  |  avg time  |  max time  |%varavg| %total
---------------------------------------------------------------
Pair    | 55.351     | 55.351     | 55.351     |   0.0 | 96.94
Neigh   | 0.13272    | 0.13272    | 0.13272    |   0.0 |  0.23
Comm    | 0.033818   | 0.033818   | 0.033818   |   0.0 |  0.06
Output  | 0.78024    | 0.78024    | 0.78024    |   0.0 |  1.37
Modify  | 0.75303    | 0.75303    | 0.75303    |   0.0 |  1.32
Other   |            | 0.04603    |            |       |  0.08

Nlocal:            400 ave         400 max         400 min
Histogram: 1 0 0 0 0 0 0 0 0 0
Nghost:            314 ave         314 max         314 min
Histogram: 1 0 0 0 0 0 0 0 0 0
Neighs:          14255 ave       14255 max       14255 min
Histogram: 1 0 0 0 0 0 0 0 0 0

Total # of neighbors = 14255
Ave neighs/atom = 35.6375
Neighbor list builds = 136
Dangerous builds = 0
Total wall time: 0:01:03
