LAMMPS (23 Jun 2022 - Update 2)
  using 64 OpenMP thread(s) per MPI task
################################################################################
# GRAPHENE: TENSILE TEST
################################################################################
#
# This is a lammps input file to simulate the stretching or compression of
# graphene. The output data can be used to calculate the Young's modulus and the
# breaking stress/strain. Buckling of a graphene sheet can be studied by
# compressing the sheet.
#
# When using this script, make sure that lammps is installed with the USER-REAXC
# and the MANYBODY packages.
#
# Date: 28/03/2016
# Author: Jeroen Mulkers
# Mail: jeroen.mulkers@uantwerpen.be
#
################################################################################


# UNITS
# 'real' units are needed when using reax/c. The default time step (1fs) for
# real units is used. Some useful conversion factors are defined.
units        real
timestep     1
variable     fpress  equal 0.000101325  # atm -> GPa
variable     fenergy equal 0.043        # Kcal/mole -> eV

# GRAPHENE SHEET
# The atom positions and the simulation box size will be read from a data file.
# Reactive force fields (reaxFF) are used to describe the interaction between
# the carbon atoms.(The pair_style reax is deprecated. so we use the modern
# reax/c implementation)
dimension    3
boundary     p p f
atom_style   charge
read_data    graphene_N400.dat
Reading data file ...
  orthogonal box = (0 0 -10) to (30 17.3205 10)
  1 by 1 by 1 MPI processor grid
  reading atoms ...
  400 atoms
  read_data CPU = 0.003 seconds
pair_style   reax/c NULL checkqeq no
pair_coeff   * * ffield.reax C
WARNING: Changed valency_val to valency_boc for X (src/REAXFF/reaxff_ffield.cpp:296)

# OUTPUT
# Calculate the average total, kinetic and potential energy per atom. Stress and
# strain are defined in x and y direction. When calculating the stress, we
# assume that the thickness of graphene is 3.35A.
variable     tmp     equal lx
variable     lx0     equal ${tmp}
variable     lx0     equal 30
variable     tmp     equal ly
variable     ly0     equal ${tmp}
variable     ly0     equal 17.3205
variable     etotal  equal etotal/atoms*${fenergy} #eV/atom
variable     etotal  equal etotal/atoms*0.043 
variable     pe      equal     pe/atoms*${fenergy} #eV/atom
variable     pe      equal     pe/atoms*0.043 
variable     ke      equal     ke/atoms*${fenergy} #eV/atom
variable     ke      equal     ke/atoms*0.043 
variable     strainx equal (lx-${lx0})/${lx0}
variable     strainx equal (lx-30)/${lx0}
variable     strainx equal (lx-30)/30
variable     strainy equal (ly-${ly0})/${ly0}
variable     strainy equal (ly-17.3205)/${ly0}
variable     strainy equal (ly-17.3205)/17.3205
variable     stressx equal -pxx*(lz/3.35)*${fpress} #GPa
variable     stressx equal -pxx*(lz/3.35)*0.000101325 
variable     stressy equal -pyy*(lz/3.35)*${fpress} #GPa
variable     stressy equal -pyy*(lz/3.35)*0.000101325 
thermo_style custom step time temp etotal press v_etotal v_pe v_ke              v_strainx v_stressx v_strainy v_stressy

# TEMPERATURE SETTINGS
variable     temp index 300
variable     seed index 1717
velocity     all create ${temp} ${seed} dist uniform
velocity     all create 300 ${seed} dist uniform
velocity     all create 300 1717 dist uniform

# EQUILIBRATION
# Relaxation of the system will be done in a NPT ensemble. The size of the
# simulation box can change in x and y direction to resolve stresses. The number
# of time steps should be large enough to relax the system in your final
# simulation but can be small for debugging purposes.
fix          fnpt all npt temp ${temp} ${temp} 10 x 0 0 500 y 0 0 500
fix          fnpt all npt temp 300 ${temp} 10 x 0 0 500 y 0 0 500
fix          fnpt all npt temp 300 300 10 x 0 0 500 y 0 0 500
thermo       1
run          5000

CITE-CITE-CITE-CITE-CITE-CITE-CITE-CITE-CITE-CITE-CITE-CITE-CITE

Your simulation uses code contributions which should be cited:

- pair reaxff command:

@Article{Aktulga12,
 author = {H. M. Aktulga, J. C. Fogarty, S. A. Pandit, A. Y. Grama},
 title = {Parallel reactive molecular dynamics: Numerical methods and algorithmic techniques},
 journal = {Parallel Computing},
 year =    2012,
 volume =  38,
 pages =   {245--259}
}

CITE-CITE-CITE-CITE-CITE-CITE-CITE-CITE-CITE-CITE-CITE-CITE-CITE

Neighbor list info ...
  update every 1 steps, delay 10 steps, check yes
  max neighbors/atom: 2000, page size: 100000
  master list distance cutoff = 12
  ghost atom cutoff = 12
  binsize = 6, bins = 5 3 4
  1 neighbor lists, perpetual/occasional/extra = 1 0 0
  (1) pair reax/c, perpetual
      attributes: half, newton off, ghost
      pair build: half/bin/newtoff/ghost
      stencil: full/ghost/bin/3d
      bin: standard
Per MPI rank memory allocation (min/avg/max) = 91.65 | 91.65 | 91.65 Mbytes
   Step          Time           Temp          TotEng         Press         v_etotal         v_pe           v_ke        v_strainx      v_stressx      v_strainy      v_stressy   
         0   0              300            28003.036      953169.3       3.0103264      2.97197        0.038356319    0             -864.43283      0             -864.43285    
         1   1              293.83332      27223.446      937500.61      2.9265205      2.8889526      0.037567881    0.0018135647  -850.07344      0.0018135648  -850.28022    
         2   2              278.68182      24974.849      889271.27      2.6847963      2.6491656      0.035630695    0.0072076671  -806.10058      0.0072085412  -806.49841    
         3   3              263.37409      21585.661      809524.71      2.3204585      2.286785       0.033673535    0.015893723   -733.46088      0.015897153   -734.04316    
         4   4              259.0307       17662.6        714671.39      1.8987295      1.8656113      0.033118213    0.027015787   -647.04564      0.027024087   -647.8218     
         5   5              275.54404      13844.915      638437.35      1.4883284      1.4530989      0.035229516    0.039112841   -577.46689      0.039128589   -578.42504    
         6   6              319.80683      10432.647      602680.86      1.1215095      1.0806208      0.040888709    0.050786568   -544.5643       0.050812132   -545.6278     
         7   7              395.81797      7365.275       601446.97      0.79176706     0.74115999     0.050607067    0.061480778   -542.91186      0.061518021   -543.96355    
         8   8              504.94361      4423.1108      619601.54      0.47548441     0.41092515     0.06455926     0.071480305   -558.72414      0.071530628   -559.6665     
         9   9              645.25095      1365.2957      646012.33      0.14676929     0.064271115    0.08249817     0.081380882   -581.84096      0.081445328   -582.62196    
        10   10             811.79459     -1997.213       672399.04     -0.2147004     -0.3184919      0.10379151     0.091676404   -604.70016      0.091755584   -605.31534    
        11   11             1009.4198     -5737.7473      690731.66     -0.61680783    -0.74586659     0.12905876     0.1026001     -619.95502      0.10269403    -620.42933    
        12   12             1252.3764     -9786.9571      694284.33     -1.0520979     -1.2122197      0.16012182     0.114107      -621.45128      0.11421505    -621.79127    
        13   13             1530.2856     -13990.218      680804.27     -1.5039485     -1.6996022      0.19565374     0.1259387     -607.18958      0.12605953    -607.3453     
        14   14             1844.9684     -18153.559      654597.76     -1.9515076     -2.1873949      0.23588731     0.13775566    -580.85255      0.1378871     -580.94164    
        15   15             2229.6579     -22141.623      621934.26     -2.3802244     -2.665296       0.28507156     0.14928317    -547.60796      0.14942308    -548.65681    
        16   16             2688.2973     -25921.783      580947.11     -2.7865916     -3.1303022      0.34371063     0.16038009    -508.47396      0.16053212    -508.21466    
        17   17             3176.3368     -29455.31       536482.68     -3.1664458     -3.5725544      0.40610863     0.17100088    -467.35171      0.17116039    -464.99766    
        18   18             3644.2831     -32835.826      494084.82     -3.5298513     -3.9957889      0.46593761     0.18115083    -427.92363      0.18130244    -425.24175    
        19   19             3962.6381     -36094.859      446762.06     -3.8801974     -4.3868381      0.5066407      0.19085581    -384.69946      0.19098623    -383.28919    
        20   20             4087.0367     -39200.881      410755.98     -4.2140947     -4.7366403      0.52254561     0.20010263    -349.05185      0.2002095     -353.19663    
        21   21             3943.4149     -42019.893      357610.96     -4.5171385     -5.0213215      0.50418293     0.2089107     -306.79535      0.20902667    -308.93481    
        22   22             3609.1372     -44543.355      318647.66     -4.7884107     -5.2498547      0.46144406     0.2172348     -277.09812      0.21737131    -277.96095    
        23   23             3239.6169     -46792.74       274025.29     -5.0302196     -5.4444188      0.41419926     0.22510666    -244.0263       0.22526409    -243.44208    
        24   24             2895.752      -48689.45       235719.25     -5.2341159     -5.6043505      0.37023462     0.23251379    -218.54061      0.23268298    -213.61227    
        25   25             2738.1272     -50356.209      217183.02     -5.4132924     -5.763374       0.35008159     0.23948495    -204.43147      0.23962934    -199.75951    
        26   26             2742.1064     -51907.26       195858.13     -5.5800304     -5.9306208      0.35059036     0.24610802    -186.59055      0.24620133    -184.99731    
        27   27             2651.5853     -53345.262      185682.1      -5.7346156     -6.0736325      0.33901684     0.25241146    -173.76341      0.25245497    -178.17511    
        28   28             2520.3628     -54695.474      182237.19     -5.8797635     -6.202003       0.32223946     0.25844126    -171.48758      0.258479      -171.71365    
        29   29             2332.7169     -56035.464      172975.28     -6.0238124     -6.3220605      0.2982481      0.2642998     -162.50998      0.26433489    -162.51846    
        30   30             2139.709      -57242.214      178388.63     -6.153538      -6.4271092      0.2735712      0.27000825    -163.77748      0.27004146    -165.40582    
        31   31             2036.4339     -58386.224      159609.54     -6.2765191     -6.5368861      0.26036703     0.2756532     -145.05377      0.27569741    -151.40259    
        32   32             2021.9039     -59478.599      154646.02     -6.3939494     -6.6524587      0.2585093      0.2811429     -140.51538      0.28124488    -143.82719    
        33   33             1942.1476     -60512.841      162122.23     -6.5051304     -6.7534425      0.24831211     0.28651012    -143.2358       0.28668329    -148.62955    
        34   34             1808.8201     -61418.097      120590.45     -6.6024455     -6.8337111      0.2312656      0.29183446    -111.56016      0.29210653    -116.72976    
        35   35             1684.0783     -62262.817      109769.55     -6.6932528     -6.9085696      0.21531682     0.29689991    -103.48723      0.29729164    -108.60109    
        36   36             1643.9823     -63033.83       119339.66     -6.7761367     -6.986327       0.21019037     0.30172298    -112.30398      0.30225115    -112.9924     
        37   37             1678.4737     -63796.213      107720.66     -6.8580929     -7.0726931      0.21460024     0.3064543     -103.8388       0.30709652    -101.51793    
        38   38             1666.7386     -64567.526      105386.07     -6.941009      -7.1541089      0.21309985     0.31106856    -103.58833      0.31178232    -96.226935    
        39   39             1565.4172     -65282.788      106710.72     -7.0178997     -7.2180452      0.20014547     0.31561243    -103.08671      0.3163211     -98.104919    
        40   40             1417.313      -65959.105      104108.18     -7.0906038     -7.2718135      0.1812097      0.3201195     -100.56125      0.32078173    -96.391442    
        41   41             1347.836      -66563.505      98278.955     -7.1555768     -7.3279036      0.17232675     0.32459743    -93.972973      0.32518654    -92.844933    
        42   42             1342.5332     -67176.354      90383.985     -7.2214581     -7.3931068      0.17164877     0.32901475    -85.66825       0.32953544    -86.313626    
        43   43             1359.1094     -67765.024      88808.718     -7.28474       -7.4585082      0.17376812     0.33332857    -82.856695      0.3338001     -85.347085    
        44   44             1317.822      -68308.939      97725.266     -7.3432109     -7.5117002      0.16848933     0.33755128    -87.67602       0.3380057     -93.295487    
        45   45             1271.4594     -68847.674      83508.491     -7.401125      -7.5636866      0.16256167     0.34176064    -78.166832      0.34225255    -79.764151    
        46   46             1216.4557     -69399.332      85036.511     -7.4604282     -7.6159574      0.1555292      0.3458881     -77.955369      0.34642541    -81.142471    
        47   47             1159.3445     -69912.996      81425.023     -7.5156471     -7.6638744      0.14822729     0.34996168    -73.374794      0.35056585    -77.667479    
        48   48             1086.0115     -70403.365      84732.071     -7.5683617     -7.707213       0.13885135     0.35396272    -75.790113      0.354662      -79.772448    
        49   49             1021.9742     -70857.511      82883.069     -7.6171824     -7.7478463      0.13066389     0.35794073    -75.425661      0.35875584    -76.825332    
        50   50             994.27673     -71304.221      78427.685     -7.6652038     -7.7923264      0.12712265     0.36190937    -72.59115       0.36283317    -71.618726    
        51   51             987.31785     -71709.382      67774.626     -7.7087586     -7.8349915      0.12623293     0.36585541    -64.566123      0.36685948    -61.959296    
        52   52             983.88265     -72094.918      56923.738     -7.7502037     -7.8759974      0.12579372     0.36971681    -55.003802      0.37076189    -53.557375    
        53   53             970.88377     -72452.409      53011.318     -7.788634      -7.9127657      0.12413176     0.37342634    -51.531589      0.37449137    -50.521737    
        54   54             943.96291     -72785.125      47762.015     -7.8244009     -7.9450907      0.12068981     0.37698779    -46.485329      0.37805964    -46.247164    
        55   55             914.06731     -73098.181      47259.976     -7.8580545     -7.974922       0.11686752     0.38038813    -45.337195      0.38146357    -45.416775    
        56   56             892.86713     -73393.983      47350.545     -7.8898532     -8.0040102      0.11415699     0.38365494    -45.297512      0.38473452    -45.056157    
        57   57             875.96497     -73685.663      44191.725     -7.9212087     -8.0332047      0.11199597     0.38682178    -42.6085        0.38790268    -41.77207     
        58   58             863.42607     -73961.845      42817.08      -7.9508984     -8.0612912      0.11039282     0.38988879    -40.892525      0.39096256    -40.687297    
        59   59             864.55049     -74222.505      34415.93      -7.9789193     -8.0894559      0.11053658     0.39286523    -34.039175      0.39393124    -32.68598     
        60   60             860.53439     -74475.475      31075.018     -8.0061136     -8.1161367      0.1100231      0.39570458    -30.518403      0.39675027    -29.995916    
        61   61             850.80505     -74720.457      35046.833     -8.0324491     -8.1412283      0.10877916     0.39840139    -33.584627      0.39942478    -33.503841    
        62   62             835.62913     -74960.182      36526.027     -8.0582195     -8.1650584      0.10683886     0.40101951    -34.645597      0.40202355    -34.721949    
        63   63             813.67755     -75198.657      32405.312     -8.0838556     -8.1878879      0.10403225     0.40359106    -31.04601       0.40457988    -31.1715      
        64   64             783.92199     -75408.362      23492.482     -8.1063989     -8.2066268      0.10022787     0.40609287    -23.522292      0.40707037    -23.489331    
        65   65             765.2858      -75606.526      19002.743     -8.1277016     -8.2255467      0.097845153    0.40846211    -19.584083      0.40942987    -19.290935    
        66   66             768.36176     -75789.85       8972.3432     -8.1474089     -8.2456473      0.098238428    0.41068303    -10.874847      0.41163947    -10.239115    
        67   67             774.20766     -75958.331      7667.4952     -8.1655206     -8.2645064      0.098985852    0.41268925    -8.911641       0.4136292     -9.2998828    
        68   68             768.00361     -76125.117      12334.686     -8.18345       -8.2816427      0.098192637    0.41449655    -12.581837      0.41542675    -13.012911    
        69   69             751.07288     -76300.202      15544.037     -8.2022718     -8.2982997      0.096027969    0.41617938    -15.51272       0.41710608    -15.449996    
        70   70             728.72722     -76467.715      17276.522     -8.2202794     -8.3134503      0.093170978    0.41779286    -16.885375      0.41871597    -16.750382    
        71   71             714.16095     -76631.802      13137.936     -8.2379187     -8.3292273      0.091308617    0.4193666     -13.442214      0.42028524    -12.815317    
        72   72             698.35331     -76784.108      9507.5228     -8.2542916     -8.3435792      0.089287541    0.42087202    -10.291996      0.4217799     -9.4124762    
        73   73             677.70381     -76927.693      9682.8887     -8.269727      -8.3563744      0.086647411    0.42228706    -10.274542      0.42317585    -9.5458021    
        74   74             663.88621     -77069.047      12744.01      -8.2849225     -8.3698033      0.084880769    0.42362722    -12.856134      0.42449133    -12.259625    
        75   75             648.5954      -77211.264      16291.763     -8.3002109     -8.3831367      0.082925772    0.42493486    -15.919562      0.42577087    -15.298806    
        76   76             626.36607     -77345.364      17884.635     -8.3146266     -8.3947103      0.080083655    0.4262521     -17.191362      0.42705673    -16.517203    
        77   77             606.82855     -77477.438      18662.552     -8.3288246     -8.4064103      0.077585697    0.42759523    -17.691479      0.42836493    -17.12878     
        78   78             588.67385     -77605.321      18643.788     -8.342572      -8.4178366      0.075264539    0.42896967    -17.143986      0.42970252    -17.48803     
        79   79             570.53479     -77725.304      11274.133     -8.3554701     -8.4284155      0.07294538     0.43036807    -10.716212      0.43107274    -10.803414    
        80   80             552.67353     -77829.547      1594.6782     -8.3666763     -8.437338       0.07066174     0.43171623    -2.047769       0.43239725    -2.0450844    
        81   81             544.51462     -77927.78      -2220.0752     -8.3772363     -8.4468549      0.069618587    0.43292255     1.5607865      0.43358278     1.4544127    
        82   82             537.14648     -78018.236     -1335.4616     -8.3869604     -8.455637       0.068676539    0.43396437     0.7746484      0.43460755     0.88042269   
        83   83             526.62943     -78109.838      3209.1945     -8.3968076     -8.4641395      0.067331887    0.43487224    -3.3736293      0.43549917    -2.8793966    
        84   84             516.53268     -78198.062      8449.0108     -8.4062917     -8.4723327      0.066040973    0.4357119     -7.950761       0.43631874    -7.4766855    
        85   85             504.62852     -78288.141      9527.561      -8.4159751     -8.4804941      0.064518974    0.43654625    -8.7961232      0.43712984    -8.4716058    
        86   86             485.46104     -78371.911      6212.0621     -8.4249804     -8.4870488      0.062068327    0.43738728    -5.7759169      0.43794653    -5.5114929    
        87   87             463.82687     -78450.64       6934.7278     -8.4334438     -8.4927461      0.059302304    0.43820017    -6.4378437      0.43873476    -6.0646502    
        88   88             445.76434     -78526.672      4195.3554     -8.4416172     -8.4986102      0.05699293     0.43899715    -4.016739       0.43950549    -3.522571     
        89   89             425.80854     -78593.602      1030.0047     -8.4488123     -8.5032537      0.054441493    0.43975267    -1.1540701      0.44023185    -0.61321574   
        90   90             405.26655     -78653.939     -2150.3277     -8.4552984     -8.5071135      0.05181511     0.44043853     1.7693624      0.44088536     2.2557114    
        91   91             392.8269      -78709.231     -3499.7849     -8.4612423     -8.5114669      0.050224646    0.44102862     3.0619877      0.44144085     3.4658738    
        92   92             387.16854     -78764.077     -3299.2007     -8.4671382     -8.5166394      0.049501199    0.44151871     2.9428808      0.44189525     3.2956943    
        93   93             375.26268     -78814.715      456.83641     -8.4725819     -8.5205609      0.047978983    0.44192151    -0.4040248      0.44226196    -0.064871847  
        94   94             358.0221      -78862.184      3155.0305     -8.4776848     -8.5234595      0.045774699    0.44228662    -2.8256817      0.44259074    -2.5101549    
        95   95             337.05768     -78905.597      3766.9076     -8.4823516     -8.5254459      0.043094306    0.44264732    -3.3535176      0.44291514    -3.128871     
        96   96             316.93156     -78945.724      2701.7177     -8.4866653     -8.5271864      0.040521093    0.44301084    -2.3448237      0.44324341    -2.2357409    
        97   97             301.04615     -78981.82      -1447.8549     -8.4905457     -8.5290357      0.038490074    0.44336526     1.4139081      0.44356489     1.4906997    
        98   98             285.7442      -79012.788     -3731.0581     -8.4938747     -8.5304083      0.036533652    0.44366695     3.4737755      0.44383602     3.5619736    
        99   99             274.04798     -79040.583     -3122.6312     -8.4968627     -8.5319009      0.035038239    0.44389682     2.9343576      0.44403734     3.0018223    
       100   100            267.94341     -79067.093     -1041.3209     -8.4997125     -8.5339702      0.034257742    0.44406871     1.0801202      0.44418269     1.1066258    
       101   101            260.4377      -79091.459      1061.8298     -8.5023319     -8.53563        0.033298105    0.44421077    -0.79779814     0.44430049    -0.79503102   
       102   102            247.58274     -79111.399      3045.1312     -8.5044754     -8.5361299      0.031654542    0.44434862    -2.5680448      0.44441641    -2.5909945    
       103   103            234.09396     -79129.925      1912.4435     -8.5064669     -8.5363969      0.029929942    0.44450409    -1.5344593      0.44455233    -1.5874688    
       104   104            224.06003     -79146.309     -1320.0545     -8.5082282     -8.5368753      0.028647059    0.44466321     1.3828677      0.4446944      1.3121402    
       105   105            216.33308     -79159.655     -3075.7572     -8.5096629     -8.5373221      0.027659136    0.44479066     2.952425       0.44480725     2.8866307    
       106   106            211.04748     -79171.44      -3155.0724     -8.5109298     -8.5379132      0.026983348    0.4448706      2.9829046      0.44487476     2.9832393    
       107   107            208.03555     -79181.888     -486.41698     -8.5120529     -8.5386512      0.02659826     0.44490716     0.56486518     0.44490003     0.57084896   
       108   108            203.9144      -79190.192      2044.8278     -8.5129456     -8.539017       0.026071353    0.44493354    -1.7175904      0.4449161     -1.7310052    
       109   109            198.22915     -79196.129      3663.8005     -8.5135839     -8.5389284      0.025344468    0.44497825    -3.1750828      0.44495159    -3.210644     
       110   110            195.23559     -79201.098      3247.2968     -8.514118      -8.5390797      0.024961729    0.44505727    -2.7968978      0.44502266    -2.8400248    
       111   111            193.70229     -79204.838      664.49283     -8.5145201     -8.5392858      0.024765689    0.44516301    -0.46067961     0.44512167    -0.50694712   
       112   112            190.96928     -79205.502     -3044.607      -8.5145914     -8.5390077      0.024416262    0.44526493     2.8982859      0.44521802     2.836056     
       113   113            189.04166     -79204.893     -4732.1099     -8.514526      -8.5386958      0.024169808    0.4453228      4.4352748      0.44527157     4.3458917    
       114   114            190.22095     -79202.801     -4774.394      -8.5143011     -8.5386217      0.024320584    0.44532194     4.5007223      0.44526785     4.3580747    
       115   115            194.63925     -79199.447     -1754.8608     -8.5139406     -8.5388261      0.024885484    0.44526666     1.7843262      0.44521169     1.6137686    
       116   116            200.95611     -79193.856      2778.6489     -8.5133395     -8.5390326      0.025693122    0.44519454    -2.3274806      0.44514083    -2.4742403    
       117   117            206.21419     -79186.823      3905.9745     -8.5125835     -8.5389489      0.02636539     0.44515679    -3.3528165      0.44510601    -3.4727729    
       118   118            210.84196     -79177.09       3104.5291     -8.5115372     -8.5384942      0.026957072    0.44516287    -2.6087886      0.44511622    -2.7510953    
       119   119            218.71898     -79167.056      1760.3689     -8.5104585     -8.5384227      0.027964183    0.44520006    -1.3876261      0.44515891    -1.5228098    
       120   120            226.17873     -79154.673     -2038.2157     -8.5091273     -8.5380453      0.028917944    0.44525097     2.0452569      0.4452165      1.9417169    
       121   121            233.9686      -79139.931     -3911.2205     -8.5075426     -8.5374565      0.029913914    0.44527285     3.7386953      0.44524577     3.6725867    
       122   122            246.51679     -79125.403     -3217.3139     -8.5059808     -8.5374991      0.031518255    0.44524757     3.1051545      0.44522807     3.1006465    
       123   123            258.86079     -79108.174     -1519.2989     -8.5041287     -8.5372251      0.033096489    0.44518668     1.5491777      0.4451742      1.6301535    
       124   124            267.70563     -79089.597     -1103.5397     -8.5021317     -8.5363591      0.034227342    0.44511194     1.1832099      0.44510492     1.276635     
       125   125            276.94578     -79069.957     -841.42455     -8.5000203     -8.5354291      0.035408735    0.44502889     0.98961027     0.44502575     1.0299427    
       126   126            290.53341     -79050.222     -29.706046     -8.4978988     -8.5350448      0.037145973    0.44494049     0.28998979     0.44494043     0.28929013   
       127   127            304.68252     -79029.925     -437.10263     -8.4957169     -8.5346719      0.038955       0.44485562     0.6621093      0.44485841     0.66506818   
       128   128            314.2074      -79008.562     -917.09654     -8.4934204     -8.5335932      0.040172798    0.44476945     1.093538       0.44477482     1.1021332    
       129   129            319.52239     -78987.184     -3565.1688     -8.4911223     -8.5319747      0.040852342    0.44467678     3.4900888      0.44468443     3.4930347    
       130   130            324.46974     -78967.856     -6823.6392     -8.4890446     -8.5305294      0.041484883    0.44454898     6.4241339      0.44455869     6.433893     
       131   131            327.14422     -78948.575     -6396.8542     -8.4869718     -8.5287987      0.041826826    0.44435311     6.0309107      0.4443646      6.0239776    
       132   132            329.43254     -78930.392     -3254.0856     -8.4850171     -8.5271365      0.042119399    0.44409917     3.190712       0.44411238     3.1144138    
       133   133            332.95377     -78913.895     -1741.0371     -8.4832437     -8.5258133      0.042569603    0.44382604     1.7907368      0.44384177     1.7022272    
       134   134            332.12066     -78896.865     -447.11782     -8.481413      -8.5238761      0.042463085    0.44355208     0.57224431     0.44357122     0.52698825   
       135   135            331.07098     -78880.536     -479.1607      -8.4796576     -8.5219865      0.04232888     0.44329203     0.53009341     0.44331486     0.58616185   
       136   136            332.20602     -78867.26      -2559.8309     -8.4782304     -8.5207044      0.042473999    0.44304524     2.3392458      0.44307079     2.5016778    
       137   137            327.12525     -78853.385     -2252.7616     -8.4767389     -8.5185633      0.041824402    0.44278865     2.021487       0.44281476     2.2185298    
       138   138            318.19723     -78840.576     -2622.1213     -8.4753619     -8.5160448      0.040682915    0.44252677     2.3427934      0.44255101     2.4636084    
       139   139            312.35314     -78829.235     -1531.3177     -8.4741428     -8.5140785      0.039935722    0.44225601     1.3175799      0.44227704     1.4085261    
       140   140            308.7269      -78818.13      -372.79239     -8.4729489     -8.512421       0.039472091    0.44198935     0.20680948     0.44200631     0.31853358   
       141   141            306.05967     -78806.902     -1578.1293     -8.471742      -8.510873       0.039131074    0.44173982     1.2164259      0.44175167     1.3981117    
       142   142            306.88493     -78797.038     -505.22929     -8.4706815     -8.5099181      0.039236587    0.44149386     0.13153739     0.44149877     0.47772312   
       143   143            306.46326     -78786.76       1112.0097     -8.4695767     -8.5087594      0.039182674    0.44126424    -1.41555        0.44125853    -0.95656724   
       144   144            303.23745     -78775.433      4155.8033     -8.4683591     -8.5071293      0.038770241    0.4410684     -4.1498464      0.44104729    -3.722478     
       145   145            300.87355     -78765.02       3960.1671     -8.4672396     -8.5057076      0.038468006    0.44093686    -3.927273       0.44089629    -3.6214767    
       146   146            300.64416     -78755.278     -1751.1857     -8.4661924     -8.504631       0.038438677    0.44086225     1.2240426      0.44079992     1.4784649    
       147   147            303.38117     -78745.361     -5854.2897     -8.4651264     -8.503915       0.038788616    0.44077816     4.8826373      0.44069254     5.1815283    
       148   148            308.82891     -78737.246     -5424.9302     -8.464254      -8.5037391      0.039485134    0.440641       4.500128       0.44053014     4.7905762    
       149   149            312.53139     -78727.222     -2092.0639     -8.4631763     -8.5031348      0.039958511    0.44045912     1.5527872      0.4403213      1.7589762    
       150   150            316.4984      -78716.935      3348.0583     -8.4620706     -8.5025363      0.040465711    0.44027126    -3.2780258      0.44010588    -3.111469     
       151   151            324.18901     -78708.125      4612.5457     -8.4611234     -8.5025724      0.04144899     0.44013615    -4.4101302      0.43994314    -4.182115     
       152   152            331.67174     -78699.756      5732.7477     -8.4602237     -8.5026294      0.04240569     0.44006375    -5.4142887      0.43984226    -5.1732403    
       153   153            334.46697     -78690.318      3197.1169     -8.4592092     -8.5019722      0.042763073    0.44006179    -3.0688278      0.43981086    -2.9374076    
       154   154            337.99504     -78683.572      1846.8552     -8.458484      -8.5016981      0.043214151    0.44009706    -1.859326       0.43981714    -1.7134054    
       155   155            344.42682     -78677.255     -599.2291      -8.4578049     -8.5018414      0.044036483    0.4401524      0.26047598     0.43984369     0.58351871   
       156   156            351.02838     -78672.855     -4851.6655     -8.4573319     -8.5022125      0.044880522    0.44020082     4.0100808      0.43986139     4.5154978    
       157   157            355.92246     -78668.713     -4663.4424     -8.4568866     -8.5023929      0.045506251    0.44019747     3.7787526      0.43982329     4.4110543    
       158   158            360.66512     -78666.391      364.44494     -8.456637      -8.5027497      0.04611262     0.44014863    -0.77053708     0.43973442    -0.074366738  
       159   159            365.70278     -78666.324      3475.5647     -8.4566298     -8.5033865      0.046756708    0.4401124     -3.54278        0.43965243    -2.871062     
       160   160            369.34716     -78667.677      3572.4573     -8.4567753     -8.5039979      0.047222658    0.44012146    -3.5990514      0.43961066    -2.9744384    
       161   161            368.30257     -78671.674      1166.6738     -8.4572049     -8.504294       0.047089103    0.44017348    -1.4194706      0.43960765    -0.82670003   
       162   162            359.7996      -78676.185     -2455.6646     -8.4576898     -8.5036918      0.04600196     0.44023922     1.8706279      0.43961484     2.3598147    
       163   163            352.25745     -78682.946     -4845.2767     -8.4584167     -8.5034543      0.045037663    0.440278       4.0667205      0.43959301     4.4452023    
       164   164            350.57294     -78692.621     -4791.3683     -8.4594567     -8.504279       0.044822292    0.44026499     4.1189891      0.43951883     4.2676925    
       165   165            346.87893     -78701.79      -957.27023     -8.4604424     -8.5047924      0.044349996    0.44020296     0.76242183     0.43939785     0.72870581   
       166   166            341.11029     -78712.5        3317.0829     -8.4615937     -8.5052062      0.04361245     0.44013574    -3.05305        0.43927595    -3.162095     
       167   167            335.75806     -78724.338      7112.3301     -8.4628664     -8.5057945      0.042928143    0.44010985    -6.4448728      0.43920023    -6.5853832    
       168   168            327.78592     -78737.243      6112.4146     -8.4642536     -8.5061625      0.04190887     0.44016368    -5.5083984      0.43920909    -5.7177216    
       169   169            316.89229     -78749.797      3325.0682     -8.4656032     -8.5061193      0.040516072    0.44028078    -2.9642346      0.43928659    -3.2865144    
       170   170            305.19681     -78762.313     -540.05292     -8.4669487     -8.5059694      0.039020753    0.44042631     0.49019559     0.43939893     0.16024784   
       171   171            294.94355     -78774.267     -3229.4838     -8.4682337     -8.5059435      0.037709829    0.44055663     2.8122343      0.43950218     2.6097671    
       172   172            290.24388     -78785.017     -2897.7777     -8.4693893     -8.5064983      0.037108956    0.4406446      2.4244005      0.43956727     2.3574676    
       173   173            293.2305      -78797.566     -1863.313      -8.4707384     -8.5082292      0.037490808    0.4406976      1.4626349      0.43959967     1.4709939    
       174   174            292.35398     -78809.14       75.032791     -8.4719825     -8.5093613      0.037378741    0.44072953    -0.30158898     0.4396122     -0.23180439   
       175   175            282.43389     -78818.903      356.89976     -8.4730321     -8.5091425      0.036110414    0.44076312    -0.53954313     0.43962676    -0.442652     
       176   176            274.38921     -78828.57       577.81555     -8.4740713     -8.5091531      0.035081866    0.44080117    -0.70908181     0.43964579    -0.64119872   
       177   177            272.34557     -78837.968      1874.9667     -8.4750816     -8.5099022      0.034820578    0.44084546    -1.8963174      0.43967141    -1.8140786    
       178   178            272.60933     -78847.054      4268.3671     -8.4760583     -8.5109126      0.034854301    0.44091004    -4.0823912      0.43971746    -4.0052836    
       179   179            270.00325     -78855.173      2801.068      -8.476931      -8.5114522      0.034521102    0.44102022    -2.7618004      0.43980928    -2.7219253    
       180   180            267.6448      -78860.817      230.13103     -8.4775378     -8.5117573      0.034219564    0.44115719    -0.37423638     0.4399285     -0.45866141   
       181   181            273.3755      -78868.704      91.333989     -8.4783857     -8.513338       0.034952259    0.44129034    -0.099098935    0.44004601    -0.40839237   
       182   182            276.85498     -78874.939     -174.99501     -8.479056      -8.5144531      0.035397126    0.44141659     0.28334963     0.44016132    -0.24125703   
       183   183            272.17216     -78878.905      2771.6831     -8.4794823     -8.5142807      0.034798407    0.44153172    -2.2946444      0.44027256    -2.9095232    
       184   184            269.73827     -78883.654      606.51576     -8.4799928     -8.5144801      0.034487223    0.44166782    -0.31741971     0.44041245    -0.96514968   
       185   185            274.6192      -78887.971     -1177.9027     -8.4804569     -8.5155682      0.035111272    0.44179959     1.3008676      0.44055565     0.64334518   
       186   186            281.18568     -78892.555     -2554.0411     -8.4809497     -8.5169005      0.035950825    0.4419076      2.5608045      0.44068244     1.8916492    
       187   187            281.01277     -78895.236     -1075.5071     -8.4812379     -8.5171666      0.035928718    0.44197797     1.2553063      0.44077862     0.57269424   
       188   188            278.24636     -78896.701      1378.5445     -8.4813954     -8.5169704      0.03557502     0.44202885    -0.9321922      0.44086209    -1.6242114    
       189   189            282.75603     -78899.377      2940.8883     -8.481683      -8.5178346      0.036151601    0.44208806    -2.3456525      0.44096039    -3.0074578    
       190   190            289.74435     -78903.01       3223.2694     -8.4820736     -8.5191186      0.037045089    0.44217238    -2.6582905      0.44108952    -3.1899078    
       191   191            289.10281     -78903.772      2055.5289     -8.4821555     -8.5191185      0.036963065    0.44228413    -1.7153603      0.4412499     -2.0193113    
       192   192            288.91665     -78904.741     -660.35391     -8.4822597     -8.5191989      0.036939263    0.44241026     0.64441962     0.44142549     0.51928629   
       193   193            295.49942     -78906.486     -1041.3644     -8.4824472     -8.5202281      0.0377809      0.44252113     0.98280299     0.44158447     0.91048881   
       194   194            302.25274     -78907.993     -428.98714     -8.4826092     -8.5212536      0.038644341    0.44261354     0.48848103     0.44172307     0.33854463   
       195   195            304.85251     -78909.149     -652.54489     -8.4827335     -8.5217102      0.038976733    0.44269462     0.71062257     0.44184949     0.54659769   
       196   196            302.42079     -78909.349     -1321.8505     -8.4827551     -8.5214209      0.038665827    0.44276231     1.3423866      0.44196191     1.1540241    
       197   197            303.12645     -78910.311     -393.7818      -8.4828584     -8.5216144      0.038756048    0.44280969     0.54634405     0.44205374     0.30472524   
       198   198            310.77202     -78913.045      1405.473      -8.4831524     -8.5228859      0.039733569    0.44284767    -1.0120773      0.44213657    -1.3278406    
       199   199            313.78981     -78914.757      3449.8992     -8.4833363     -8.5234557      0.040119406    0.44289585    -2.7959633      0.44223087    -3.1701282    
       200   200            313.67739     -78916.217      3459.5011     -8.4834933     -8.5235983      0.040105033    0.44297546    -2.7476222      0.44235853    -3.202752     
       201   201            317.2126      -78919.557      627.83277     -8.4838524     -8.5244094      0.040557025    0.44308414    -0.14649116     0.44251808    -0.68200577   
       202   202            318.57385     -78922.336     -2345.9072     -8.4841511     -8.5248822      0.040731068    0.44318844     2.5699005      0.44267691     1.9624423    
       203   203            317.41261     -78924.94      -3594.9963     -8.484431      -8.5250136      0.040582598    0.44325539     3.7508495      0.44280275     3.0484692    
       204   204            316.80255     -78928.876     -4295.0975     -8.4848542     -8.5253588      0.040504599    0.44327264     4.4132426      0.44288418     3.6759427    
       205   205            314.8386      -78933.231     -2771.1061     -8.4853223     -8.5255758      0.040253499    0.44323488     3.0161937      0.44291603     2.3401978    
       206   206            312.12483     -78936.996      559.88625     -8.485727      -8.5256335      0.039906531    0.44316231    -0.069199286    0.44291744    -0.58599022   
       207   207            311.87646     -78942.369      3538.7014     -8.4863046     -8.5261794      0.039874777    0.44309465    -2.8677549      0.44292595    -3.2041795    
       208   208            309.99048     -78947.894      4137.0428     -8.4868986     -8.5265323      0.039633646    0.44306589    -3.4912795      0.44297323    -3.6995831    
       209   209            302.17648     -78952.772      568.32897     -8.487423      -8.5260576      0.038634591    0.4430815     -0.33947145     0.44306319    -0.42791986   
       210   210            292.49153     -78957.07      -3486.5224     -8.487885      -8.5252814      0.037396328    0.44310039     3.2537048      0.44315341     3.2880427    
       211   211            287.97746     -78962.053     -5348.8634     -8.4884207     -8.5252399      0.036819184    0.44307839     4.8632524      0.44319837     4.9949636    
       212   212            287.32566     -78967.226     -3283.3976     -8.4889768     -8.5257126      0.036735848    0.44299802     2.9422574      0.44317966     3.1545627    
       213   213            284.98444     -78971.617      63.523424     -8.4894488     -8.5258853      0.036436514    0.44288602    -0.10828541     0.44312332     0.15025044   
       214   214            279.11387     -78975.306      1758.7796     -8.4898454     -8.5255314      0.035685935    0.44278149    -1.6234037      0.44306824    -1.411118     
       215   215            271.16733     -78978.044      1040.8738     -8.4901397     -8.5248096      0.034669935    0.44270256    -0.96002793     0.44303345    -0.8331901    
       216   216            265.85327     -78980.518      228.61909     -8.4904057     -8.5243962      0.033990509    0.44263969    -0.21958288     0.44301077    -0.16535251   
       217   217            263.34459     -78982.501      1492.7258     -8.4906188     -8.5242886      0.033669763    0.44258293    -1.3207696      0.44299134    -1.3556093    
       218   218            261.82146     -78983.174      2297.0458     -8.4906912     -8.5241662      0.033475024    0.44254542    -1.9632598      0.44298959    -2.1416238    
       219   219            262.47595     -78983.372      1357.3757     -8.4907125     -8.5242712      0.033558704    0.44253398    -1.0152942      0.44301417    -1.382259     
       220   220            264.78851     -78983.379     -308.37175     -8.4907132     -8.5245676      0.033854375    0.4425356      0.51127311     0.44305437     0.093384388  
       221   221            264.79221     -78981.729     -1679.051      -8.4905359     -8.5243908      0.033854848    0.44253087     1.7019315      0.44309128     1.3580518    
       222   222            263.88358     -78979         -2903.1227     -8.4902425     -8.5239812      0.033738676    0.44250554     2.744401       0.44310957     2.505287     
       223   223            266.30369     -78976.93      -3064.3748     -8.49002       -8.5240681      0.034048098    0.44244795     2.8319204      0.44309619     2.7021421    
       224   224            268.71417     -78972.803      361.44413     -8.4895763     -8.5239326      0.034356288    0.44235872    -0.31178704     0.4430504     -0.3324516    
       225   225            272.99036     -78968.831      1934.946      -8.4891493     -8.5240523      0.034903018    0.44227804    -1.7800152      0.44301111    -1.6753172    
       226   226            278.571       -78963.737      3248.2831     -8.4886017     -8.5242183      0.035616527    0.44222344    -2.9829815      0.44299444    -2.7763591    
       227   227            282.41322     -78958.059      2717.2253     -8.4879913     -8.5240991      0.036107771    0.44220827    -2.5274388      0.44301268    -2.2327424    
       228   228            286.23787     -78952.155     -539.68985     -8.4873567     -8.5239535      0.03659677     0.44222486     0.36984051     0.44305734     0.74886145   
       229   229            289.71161     -78945.5       -3189.9919     -8.4866412     -8.5236822      0.037040903    0.44223605     2.6960899      0.44309049     3.1624743    
       230   230            292.45622     -78938.78      -4819.8536     -8.4859188     -8.5233106      0.037391814    0.44221363     4.1250131      0.44308313     4.6274562    
       231   231            295.01372     -78932.425     -3446.2335     -8.4852357     -8.5229545      0.037718801    0.44214183     2.8736455      0.44301942     3.3898736    
       232   232            296.08929     -78924.866     -1434.4646     -8.4844231     -8.5222794      0.037856317    0.44203854     1.0944946      0.44291745     1.5625961    
       233   233            298.32753     -78917.729      142.44426     -8.4836558     -8.5217983      0.038142486    0.44192721    -0.27965564     0.44280162     0.10476995   
       234   234            301.19197     -78911.189      1226.0298     -8.4829529     -8.5214616      0.038508718    0.44182506    -1.2356059      0.44269049    -0.89525239   
       235   235            300.79661     -78903.198      1405.8252     -8.4820938     -8.520552       0.038458169    0.44174331    -1.3633125      0.44259607    -1.1310571    
       236   236            300.20514     -78896.111      425.02209     -8.4813319     -8.5197145      0.038382546    0.44168247    -0.41597059     0.44252037    -0.34668972   
       237   237            301.79079     -78888.614     -125.42843     -8.480526      -8.5191112      0.038585279    0.44162984     0.13048665     0.4424528      0.10461275   
       238   238            303.76288     -78882.418     -2250.8862     -8.47986       -8.5186974      0.038837419    0.44157831     2.0340198      0.44238741     2.039001     
       239   239            301.64666     -78874.766     -2871.0324     -8.4790374     -8.5176042      0.038566852    0.4415045      2.5798464      0.44230037     2.6102126    
       240   240            299.78234     -78867.409     -1702.216      -8.4782465     -8.516575       0.03832849     0.44140286     1.481925       0.44218579     1.5944412    
       241   241            302.7867      -78861.29      -1636.0933     -8.4775887     -8.5163013      0.03871261     0.44128824     1.3500029      0.44205749     1.5815349    
       242   242            304.30562     -78854.617      928.40083     -8.4768713     -8.5157781      0.038906811    0.4411629     -1.0768435      0.44191632    -0.64966086   
       243   243            302.1305      -78847.059      1785.7315     -8.4760589     -8.5146876      0.038628712    0.44105707    -1.9613374      0.44179024    -1.3640023    
       244   244            303.37916     -78839.886      2791.1714     -8.4752878     -8.5140761      0.038788359    0.44098057    -2.9319598      0.44168721    -2.214936     
       245   245            308.98433     -78833.542      4338.2972     -8.4746058     -8.5141108      0.039505004    0.44094378    -4.3718732      0.44161646    -3.5728549    
       246   246            314.53811     -78827.149      3467.8964     -8.4739185     -8.5141336      0.04021508     0.44096233    -3.5838076      0.441593      -2.7706554    
       247   247            316.52211     -78821.083     -709.0105      -8.4732664     -8.5137351      0.040468743    0.4410238      0.16790076     0.44160462     1.0456933    
       248   248            314.31152     -78814.49      -4585.4779     -8.4725577     -8.5127438      0.040186109    0.44108018     3.669749       0.44160287     4.5740473    
       249   249            315.60243     -78809.035     -4687.7923     -8.4719713     -8.5123225      0.040351157    0.44108884     3.8180859      0.44154521     4.6214715    
       250   250            321.58852     -78805.246     -4228.2031     -8.471564      -8.5126805      0.041116506    0.44105035     3.4894589      0.44143383     4.1062626    
       251   251            323.69348     -78800.371     -2036.6102     -8.4710398     -8.5124255      0.041385635    0.44097107     1.6094104      0.44127769     2.019788     
       252   252            322.40242     -78796.407     -80.28893      -8.4706137     -8.5118343      0.041220566    0.440876      -0.06691864     0.44110455     0.13722459   
       253   253            320.59939     -78792.474      1201.1382     -8.4701909     -8.511181       0.040990041    0.44078643    -1.1651735      0.44093826    -1.1082787    
       254   254            320.86047     -78789.386      4849.2238     -8.469859      -8.5108824      0.041023422    0.44071551    -4.3940938      0.4407937     -4.4777072    
       255   255            324.17928     -78787.489      4422.2642     -8.4696551     -8.5111028      0.041447746    0.44070181    -4.0177986      0.44071098    -4.126044     
       256   256            323.42752     -78785.976      2486.6738     -8.4694924     -8.5108441      0.04135163     0.44073792    -2.3293737      0.44068277    -2.3378725    
       257   257            318.20705     -78783.658     -474.4603      -8.4692433     -8.5099274      0.04068417     0.44080078     0.28558237     0.44068453     0.37839906   
       258   258            315.89926     -78783.804     -3152.5316     -8.4692589     -8.509648       0.040389108    0.4408571      2.6741123      0.44068158     2.848852     
       259   259            314.34438     -78783.472     -2457.0541     -8.4692233     -8.5094136      0.04019031     0.44087798     1.9887017      0.44064393     2.2821926    
       260   260            313.00211     -78783.306     -1486.282      -8.4692054     -8.5092241      0.040018696    0.44087352     1.0034768      0.44058019     1.4824744    
       261   261            310.42874     -78784.188      981.19585     -8.4693002     -8.5089899      0.039689679    0.440857      -1.3437591      0.44050138    -0.69438423   
       262   262            307.19248     -78783.861      3388.4649     -8.4692651     -8.508541       0.039275909    0.44085773    -3.56789        0.44043487    -2.8632902    
       263   263            306.88476     -78785.547      2376.8646     -8.4694463     -8.5086828      0.039236565    0.44090208    -2.6503695      0.44040657    -1.933017     
       264   264            305.53255     -78786.555     -497.78138     -8.4695547     -8.5086184      0.03906368     0.44097675     0.017613878    0.44040328     0.63067252   
       265   265            303.46291     -78787.628     -520.17341     -8.46967       -8.5084691      0.038799066    0.44104765     0.12348434     0.44039244     0.62681058   
       266   266            304.01881     -78788.435      119.85759     -8.4697567     -8.5086269      0.038870141    0.44111368    -0.37629217     0.44037444    -0.0055861477 
       267   267            307.72447     -78790.567      904.56623     -8.4699859     -8.5093299      0.039343926    0.44118118    -1.0108451      0.44035738    -0.79820926   
       268   268            310.74998     -78792.222      969.32475     -8.4701638     -8.5098946      0.03973075     0.44125787    -0.99947566     0.44035089    -0.95662899   
       269   269            312.22218     -78793.815      2004.7267     -8.4703351     -8.5102541      0.039918978    0.44134319    -1.8950085      0.44035643    -1.956382     
       270   270            314.14421     -78796.113      2620.5334     -8.4705822     -8.5107469      0.040164718    0.44144771    -2.4111003      0.44038565    -2.5664918    
       271   271            315.30588     -78799.318      1731.063      -8.4709267     -8.5112399      0.040313242    0.44157687    -1.551081       0.44044493    -1.7962492    
       272   272            314.08163     -78801.596     -473.31281     -8.4711716     -8.5113283      0.040156716    0.44171899     0.5017902      0.44052342     0.16590204   
       273   273            317.26591     -78804.931     -1204.5962     -8.4715301     -8.512094       0.040563841    0.44184832     1.2200357      0.44059622     0.82149121   
       274   274            323.68221     -78809.512     -556.54786     -8.4720226     -8.5134068      0.041384194    0.44195667     0.6296577      0.44065557     0.29348238   
       275   275            324.876       -78813.786      1476.5317     -8.472482      -8.5140189      0.041536825    0.44205225    -1.2567129      0.44070855    -1.4610514    
       276   276            322.79901     -78818.433      813.74366     -8.4729816     -8.5142528      0.041271272    0.44215882    -0.69985749     0.44077699    -0.81136356   
       277   277            322.41667     -78823.864     -1848.0898     -8.4735654     -8.5147878      0.041222388    0.44226904     1.69189        0.44085221     1.5703021    
       278   278            321.87392     -78830.82      -609.63923     -8.4743132     -8.5154662      0.041152996    0.44235341     0.54891524     0.44090469     0.49260272   
       279   279            318.50125     -78836.715      1100.7252     -8.4749469     -8.5156687      0.040721785    0.44242714    -1.0064082      0.44094872    -1.0042574    
       280   280            318.04602     -78844.039      2791.653      -8.4757342     -8.5163978      0.040663581    0.44250985    -2.5112258      0.44100304    -2.5122736    
       281   281            318.76196     -78851.956      2516.1965     -8.4765853     -8.5173404      0.040755118    0.4426196     -2.2461185      0.4410857     -2.2658924    
       282   282            317.54763     -78860.461     -321.4875      -8.4774996     -8.5180994      0.04059986     0.44275193     0.31962074     0.44119237     0.29913091   
       283   283            314.32779     -78868.359     -2282.0494     -8.4783486     -8.5185367      0.040188189    0.44287428     2.1455529      0.44129051     2.0302583    
       284   284            310.86551     -78876.513     -1328.8637     -8.4792251     -8.5189706      0.039745521    0.44296468     1.4130648      0.44135923     1.0954078    
       285   285            309.04075     -78885.939     -1753.3151     -8.4802384     -8.5197506      0.039512218    0.44303359     1.8828309      0.44141139     1.4482673    
       286   286            303.9731      -78894.572     -1691.4042     -8.4811665     -8.5200308      0.038864297    0.44307623     1.8286092      0.44144338     1.3967257    
       287   287            298.27824     -78902.507      1171.8646     -8.4820195     -8.5201556      0.038136183    0.44309444    -0.75162712     0.44145677    -1.2355625    
       288   288            298.36581     -78911.841      4848.9512     -8.4830229     -8.5211703      0.038147381    0.44312108    -4.0136775      0.44148473    -4.6461576    
       289   289            298.31168     -78921.161      6114.2616     -8.4840248     -8.5221653      0.038140459    0.44319589    -5.0995223      0.44156853    -5.8599918    
       290   290            291.72047     -78929.346      1037.1602     -8.4849047     -8.5222025      0.037297744    0.44333008    -0.51766871     0.44172058    -1.3009529    
       291   291            284.65803     -78936.504     -4257.8501     -8.4856742     -8.522069       0.03639478     0.44346462     4.2645573      0.44188179     3.4722325    
       292   292            283.36763     -78944.298     -5452.4985     -8.4865121     -8.5227418      0.036229797    0.44354062     5.356802       0.44199308     4.589653     
       293   293            281.00492     -78951.252     -4167.3495     -8.4872596     -8.5231873      0.035927714    0.44354726     4.2035354      0.44204293     3.4568201    
       294   294            275.67636     -78957.289     -1639.712      -8.4879086     -8.523155       0.035246434    0.44350184     1.8711486      0.44204803     1.2295194    
       295   295            272.22776     -78963.435     -684.87292     -8.4885692     -8.5233747      0.034805515    0.4434354      0.9432384      0.44203778     0.42263204   
       296   296            270.38072     -78968.406      1491.8763     -8.4891036     -8.523673       0.034569363    0.44336032    -1.0656607      0.4420228     -1.5220718    
       297   297            269.48221     -78972.707      4812.7121     -8.489566      -8.5240205      0.034454485    0.4433017     -4.0735593      0.4420272     -4.5424111    
       298   298            270.02406     -78976.96       5455.1743     -8.4900231     -8.5245469      0.034523762    0.44329585    -4.6489956      0.4420873     -5.1583924    
       299   299            269.61969     -78980.495      2680.0033     -8.4904032     -8.5248753      0.034472062    0.44334752    -2.101059       0.44220822    -2.6934661    
       300   300            265.72001     -78982.918     -2901.2983     -8.4906637     -8.5246372      0.033973471    0.44342279     2.9996048      0.44235697     2.3198241    
       301   301            261.84591     -78983.416     -5142.4113     -8.4907172     -8.5241953      0.03347815     0.44345779     5.0523096      0.44247062     4.349666     
       302   302            263.78018     -78984.918     -4519.5919     -8.4908786     -8.5246041      0.033725455    0.443429       4.4812222      0.44252571     3.8058372    
       303   303            268.06765     -78985.269     -1321.0907     -8.4909164     -8.5251901      0.034273628    0.44334626     1.6292929      0.44253152     0.90049062   
       304   304            270.60331     -78984.917      1794.4606     -8.4908785     -8.5254764      0.034597823    0.44324708    -1.1549944      0.442526      -1.943448     
       305   305            270.20792     -78983.361      1763.1751     -8.4907113     -8.5252586      0.034547271    0.44316647    -1.13967        0.44254465    -1.9307633    
       306   306            271.1763      -78981.585      1054.2307     -8.4905204     -8.5251915      0.034671081    0.44310344    -0.5178439      0.44258627    -1.3041408    
       307   307            272.39273     -78979.295      1527.0565     -8.4902742     -8.5251008      0.034826607    0.44304953    -0.95424799     0.44264214    -1.7352397    
       308   308            273.71315     -78975.769      1306.5174     -8.4898951     -8.5248906      0.034995429    0.44300973    -0.7944215      0.44271697    -1.4834723    
       309   309            278.58861     -78973.051     -208.21091     -8.489603      -8.5252218      0.035618779    0.44298145     0.48790276     0.44280683     0.0069664391 
       310   310            280.95352     -78968.7       -2537.9509     -8.4891353     -8.5250564      0.035921142    0.44294838     2.4970764      0.44289273     2.2252674    
       311   311            279.08305     -78963.501     -5810.3389     -8.4885764     -8.5242584      0.035681995    0.44288599     5.3853163      0.44294751     5.2381293    
       312   312            278.41919     -78958.77      -6208.0168     -8.4880678     -8.5236649      0.035597117    0.44275993     5.6794513      0.44293538     5.6199768    
       313   313            281.02242     -78953.416     -2759.2911     -8.4874922     -8.5234222      0.035929951    0.44256935     2.5170731      0.44285453     2.512318     
       314   314            285.03651     -78947.751      2317.5815     -8.4868832     -8.5233264      0.03644317     0.44235599    -2.1154117      0.44274622    -2.0305546    
       315   315            287.07799     -78941.125      5322.3499     -8.486171      -8.5228751      0.036704183    0.44217785    -4.8830244      0.44266757    -4.699549     
       316   316            287.50749     -78934.113      4791.6063     -8.4854171     -8.5221762      0.036759096    0.44206746    -4.4472909      0.44265016    -4.1760994    
       317   317            285.33889     -78926.405      1866.607      -8.4845885     -8.5210703      0.036481832    0.44201654    -1.8175295      0.44268493    -1.5128497    
       318   318            284.34664     -78918.939     -2534.1688     -8.4837859     -8.5201409      0.036354967    0.44199017     2.1657922      0.44273684     2.444782     
       319   319            286.63288     -78912.234     -5278.0205     -8.4830652     -8.5197124      0.036647274    0.44193826     4.6875836      0.44275645     4.8419298    
       320   320            286.36955     -78903.854     -5847.3433     -8.4821643     -8.5187779      0.036613606    0.44183087     5.2677223      0.4427156      5.2458148    
       321   321            287.33499     -78895.746     -1883.8566     -8.4812927     -8.5180297      0.036737041    0.44166323     1.7219096      0.44261189     1.6031051    
       322   322            293.44766     -78887.45       4240.5756     -8.4804009     -8.5179195      0.037518573    0.44148152    -3.8330201      0.44249285    -3.8935641    
       323   323            298.74434     -78878.919      5936.8746     -8.4794838     -8.5176796      0.038195777    0.44135465    -5.4379167      0.44242677    -5.3365562    
       324   324            298.49794     -78868.589      3342.2789     -8.4783733     -8.5165376      0.038164274    0.44130001    -3.1723989      0.44242915    -2.901986     
       325   325            302.24783     -78859.959      389.09851     -8.4774456     -8.5160893      0.038643713    0.44128669    -0.57371178     0.44246716    -0.15886658   
       326   326            310.38437     -78852.009     -2488.7202     -8.4765909     -8.5162749      0.039684005    0.44128099     2.0065057      0.44250553     2.4760219    
       327   327            311.90261     -78842.355     -3356.8452     -8.4755532     -8.5154313      0.03987812     0.44125086     2.7343291      0.44251183     3.3095324    
       328   328            313.52418     -78832.577     -2323.9359     -8.474502      -8.5145874      0.040085444    0.44118837     1.6920139      0.44247712     2.4682873    
       329   329            323.09778     -78826.164     -2043.0323     -8.4738127     -8.5151221      0.041309471    0.44110769     1.3630721      0.4424135      2.2578768    
       330   330            328.74315     -78818.044     -298.49769     -8.4729397     -8.514971       0.042031257    0.44101362    -0.20781192     0.44232474     0.68181995   
       331   331            329.9487      -78809.802      2656.243      -8.4720538     -8.5142392      0.042185391    0.44092603    -2.8525119      0.4422313     -1.974041     
       332   332            334.93954     -78803.74       3689.581      -8.471402      -8.5142255      0.042823492    0.44087715    -3.7712664      0.44216604    -2.8685237    
       333   333            339.73676     -78798.277      4281.7239     -8.4708147     -8.5142516      0.043436838    0.44087666    -4.2967261      0.44213878    -3.3705794    
       334   334            340.3709      -78793.719      3864.9837     -8.4703248     -8.5138427      0.043517916    0.44092901    -3.9128959      0.44215412    -3.0348264    
       335   335            339.14704     -78789.575     -627.80561     -8.4698793     -8.5132408      0.04336144     0.44102731     0.18729951     0.44220618     0.92299397   
       336   336            340.89306     -78787.637     -4500.5088     -8.4696709     -8.5132556      0.043584677    0.44111927     3.7594253      0.44224473     4.3358245    
       337   337            342.51449     -78786.438     -5126.6052     -8.469542      -8.513334       0.043791983    0.44116122     4.3982061      0.44222834     4.8604463    
       338   338            341.81431     -78786.328     -1638.2568     -8.4695303     -8.5132327      0.043702462    0.44114735     1.2907037      0.44215281     1.7290746    
       339   339            341.5494      -78787.43       1440.5349     -8.4696488     -8.5133173      0.043668591    0.44111819    -1.4503367      0.4420591     -1.0464422    
       340   340            339.61923     -78789.495      1691.5443     -8.4698707     -8.5132925      0.043421811    0.44110805    -1.6666532      0.44198211    -1.281147     
       341   341            337.25099     -78792.726      2060.7017     -8.4702181     -8.5133371      0.043119021    0.44111884    -2.0185783      0.44192404    -1.6358782    
       342   342            335.82123     -78797.247      1404.7842     -8.470704      -8.5136402      0.04293622     0.44115401    -1.4894095      0.44188848    -1.0529178    
       343   343            331.55415     -78802.036      767.04485     -8.4712189     -8.5136095      0.042390655    0.44120608    -1.0094093      0.44186732    -0.43874539   
       344   344            326.25148     -78807.286     -1830.4315     -8.4717833     -8.513496       0.041712686    0.44126845     1.2748609      0.44185243     1.9546967    
       345   345            322.83311     -78814.738     -4139.6285     -8.4725843     -8.5138599      0.041275632    0.44131261     3.3820484      0.44181409     4.0487836    
       346   346            319.36421     -78820.941     -1746.4806     -8.4732511     -8.5140832      0.040832118    0.44131339     1.2518946      0.44172748     1.9095831    
       347   347            317.13967     -78828.95       1459.5722     -8.4741122     -8.5146599      0.040547701    0.44129874    -1.6669977      0.44162089    -0.93391085   
       348   348            313.02264     -78836.385      4009.3639     -8.4749114     -8.5149327      0.04002132     0.44130519    -3.9848161      0.4415301     -3.2534917    
       349   349            308.62155     -78844.296      3991.9191     -8.4757618     -8.5152204      0.039458622    0.4413604     -3.9576835      0.441483      -3.2951796    
       350   350            304.27376     -78852.327      2462.2363     -8.4766251     -8.5155279      0.038902737    0.44146209    -2.498237       0.44147834    -1.9939794    
       351   351            299.40429     -78859.929     -107.06685     -8.4774424     -8.5157225      0.038280155    0.44159046    -0.061702531    0.44149841     0.23223679   
       352   352            297.7608      -78867.679     -3047.9957     -8.4782755     -8.5163455      0.038070027    0.44171445     2.6658571      0.44151482     2.8061417    
       353   353            298.52893     -78875.746     -1411.338      -8.4791427     -8.5173109      0.038168235    0.44180068     1.2033807      0.44149604     1.2907063    
       354   354            296.33772     -78883.545     -274.75636     -8.4799811     -8.5178692      0.037888081    0.44186866     0.16192128     0.44146213     0.2309309    
       355   355            291.03349     -78890.302      183.109       -8.4807075     -8.5179174      0.037209911    0.44193195    -0.20668705     0.44142673    -0.23122771   
       356   356            289.141       -78897.288     -101.12624     -8.4814584     -8.5184264      0.036967948    0.44199527     0.13643559     0.4413956     -0.035755034  
       357   357            289.08721     -78905.014     -1698.7205     -8.482289      -8.51925        0.03696107     0.44205441     1.6407555      0.44136614     1.3613833    
       358   358            284.56154     -78910.808     -2148.8932     -8.4829119     -8.5192943      0.036382444    0.44209099     2.0613921      0.4413211      1.7413065    
       359   359            280.6484      -78916.733      512.70732     -8.4835488     -8.5194309      0.035882132    0.44210075    -0.32111472     0.44125642    -0.67097264   
       360   360            278.80501     -78922.357      1636.2233     -8.4841533     -8.5197998      0.035646446    0.44211408    -1.3130107      0.44120256    -1.7271892    
       361   361            275.38724     -78927.733      855.54633     -8.4847313     -8.5199408      0.035209468    0.44214306    -0.6143711      0.44117208    -1.0134861    
       362   362            270.29858     -78931.303      738.3361      -8.4851151     -8.5196739      0.034558861    0.44217847    -0.55447454     0.44115529    -0.84204781   
       363   363            267.44838     -78935.484      1311.3683     -8.4855646     -8.519759       0.034194451    0.44221933    -1.1131661      0.44114953    -1.3098529    
       364   364            264.12054     -78938.421     -296.07837     -8.4858802     -8.5196492      0.033768972    0.4422723      0.2989293      0.44116013     0.13942726   
       365   365            259.99354     -78939.942     -1765.2365     -8.4860438     -8.5192851      0.033241317    0.44231953     1.5694126      0.4411686      1.4398623    
       366   366            257.96219     -78941.847     -3392.1652     -8.4862485     -8.5192301      0.0329816      0.44234557     2.9805878      0.44115901     2.8574898    
       367   367            254.29908     -78941.781     -2525.257      -8.4862415     -8.5187547      0.032513255    0.44233387     2.1877916      0.44111462     2.0521856    
       368   368            251.82696     -78940.819      1175.1015     -8.4861381     -8.5183353      0.032197184    0.44229567    -1.0953317      0.4410467     -1.3086529    
       369   369            252.65214     -78939.844      2357.7545     -8.4860332     -8.5183359      0.032302687    0.44227246    -2.0973852      0.44099754    -2.3685801    
       370   370            253.97802     -78937.159      1243.4808     -8.4857446     -8.5182168      0.032472206    0.442276      -1.0253594      0.44097946    -1.4136435    
       371   371            255.32256     -78933.299     -2191.0136     -8.4853296     -8.5179738      0.032644112    0.44229204     2.1474021      0.44097949     1.5629338    
       372   372            256.46898     -78929.174     -2889.8837     -8.4848862     -8.5176769      0.032790687    0.44228101     2.8399827      0.44096028     2.0760643    
       373   373            257.85559     -78923.586     -1222.605      -8.4842855     -8.5172535      0.032967971    0.44223541     1.3815452      0.44091626     0.5354757    
       374   374            261.51976     -78917.595      919.96756     -8.4836415     -8.5170779      0.03343645     0.44217456    -0.51053242     0.44086735    -1.3603266    
       375   375            266.45612     -78910.662      4724.3404     -8.4828962     -8.5169638      0.034067586    0.44212235    -3.948063       0.44083708    -4.7052819    
       376   376            269.35446     -78902.921      4645.983      -8.482064      -8.5165021      0.034438152    0.4421208     -3.9021256      0.4408659     -4.5635863    
       377   377            272.51689     -78893.394      829.71545     -8.4810398     -8.5158823      0.034842482    0.44216739    -0.4884387      0.4409498     -1.0745279    
       378   378            283.31382     -78884.868     -980.1858      -8.4801233     -8.5163463      0.036222917    0.44221822     1.1151744      0.44104373     0.58404165   
       379   379            296.37579     -78875.045      419.428       -8.4790673     -8.5169602      0.037892947    0.44225337    -0.20182313     0.44112687    -0.63127159   
       380   380            303.99574     -78864.74       1011.6862     -8.4779596     -8.5168268      0.038867192    0.44228966    -0.78317527     0.44121463    -1.1182904    
       381   381            307.58726     -78853.743     -630.46536     -8.4767774     -8.5161038      0.039326383    0.44233424     0.6524236      0.44131282     0.42765775   
       382   382            314.49456     -78843.119     -1568.9634     -8.4756353     -8.5158448      0.040209512    0.44236908     1.4710533      0.44140202     1.3421537    
       383   383            325.14162     -78833.77      -2114.5664     -8.4746303     -8.5162011      0.041570785    0.44238446     1.968337       0.44147129     1.8952502    
       384   384            331.70993     -78823.546     -1144.4394     -8.4735312     -8.5159418      0.042410573    0.44237498     1.1182845      0.44151458     1.0605896    
       385   385            335.78364     -78814.178      199.71264     -8.4725242     -8.5154556      0.042931414    0.44235208    -0.1033187      0.44154316    -0.10198568   
       386   386            342.76132     -78805.666      1493.4065     -8.4716091     -8.5154326      0.043823541    0.44233132    -1.2470792      0.44157192    -1.2631494    
       387   387            352.64367     -78799.323      2712.4155     -8.4709273     -8.5160143      0.045087043    0.44232673    -2.27373        0.44161518    -2.4232522    
       388   388            356.73315     -78794.084      1726.2146     -8.470364      -8.5159739      0.045609901    0.44235037    -1.3531089      0.44168668    -1.5786619    
       389   389            353.82347     -78788.557      525.80266     -8.4697699     -8.5150078      0.045237885    0.44238982    -0.26457367     0.44177497    -0.51505515   
       390   390            353.52178     -78785.981     -2407.5751     -8.4694929     -8.5146923      0.045199313    0.44243105     2.409417       0.44186629     2.0809235    
       391   391            356.56067     -78785.066     -4368.1572     -8.4693946     -8.5149825      0.045587849    0.44244101     4.220312       0.44192853     3.7849492    
       392   392            356.15076     -78785.759     -2595.8568     -8.4694691     -8.5150046      0.045535439    0.44239851     2.6298177      0.44194174     2.1821032    
       393   393            354.10136     -78787.362      921.55134     -8.4696414     -8.5149148      0.045273415    0.44232516    -0.57913959     0.44192754    -0.94131524   
       394   394            354.82725     -78791.357      3859.0388     -8.4700709     -8.5154371      0.045366223    0.44226171    -3.2825132      0.44192549    -3.5375376    
       395   395            352.32579     -78796.189      5795.5622     -8.4705903     -8.5156367      0.045046401    0.44224113    -5.1019077      0.44196717    -5.2396346    
       396   396            346.75276     -78803.142      5515.0501     -8.4713377     -8.5156716      0.044333864    0.44228428    -4.9543856      0.44207194    -4.9165079    
       397   397            340.13678     -78810.445      1452.9501     -8.4721228     -8.5156108      0.043487982    0.44238697    -1.4069487      0.44223349    -1.1688196    
       398   398            334.87564     -78819.481     -3404.8561     -8.4730942     -8.5159095      0.042815322    0.44250324     2.9076231      0.4424035      3.2853426    
       399   399            330.12682     -78828.476     -6135.863      -8.4740612     -8.5162694      0.042208165    0.44257929     5.3476037      0.44252665     5.7800781    
       400   400            325.81629     -78838.407     -4930.1416     -8.4751287     -8.5167858      0.041657045    0.44258648     4.2755386      0.44257386     4.6850822    
       401   401            320.65677     -78848.642     -2172.745      -8.476229      -8.5172264      0.040997377    0.4425406      1.7516025      0.44256145     2.2300563    
       402   402            315.28647     -78859.78       2638.2011     -8.4774263     -8.5177371      0.04031076     0.44247478    -2.5984949      0.44252196    -2.09251      
       403   403            309.4689      -78869.887      6430.2987     -8.4785129     -8.5180799      0.039566959    0.44244349    -5.9786621      0.44250978    -5.5334675    
       404   404            304.1583      -78881.264      7083.1729     -8.4797359     -8.5186238      0.038887976    0.4424872     -6.527382       0.4425664     -6.1591747    
       405   405            298.59805     -78892.636      4633.1203     -8.4809584     -8.5191355      0.038177073    0.44260994    -4.2691814      0.44269703    -4.0074023    
       406   406            292.10737     -78902.572     -1758.5553     -8.4820265     -8.5193737      0.037347211    0.44278094     1.5521702      0.4428724      1.6861755    
       407   407            287.76082     -78912.125     -6127.2866     -8.4830534     -8.5198449      0.036791486    0.4429265      5.5809755      0.44302052     5.5274419    
       408   408            285.95417     -78921.319     -7646.7066     -8.4840418     -8.5206023      0.036560497    0.44299774     7.0671137      0.44309488     6.7911256    
       409   409            285.03504     -78930.376     -3060.921      -8.4850154     -8.5214583      0.036442982    0.44297899     2.9941975      0.44308253     2.6133644    
       410   410            283.42224     -78938.988      1703.9426     -8.4859412     -8.522178       0.036236779    0.44292389    -1.321722       0.44303833    -1.6515393    
       411   411            280.90223     -78946.694      5721.274      -8.4867696     -8.5226841      0.035914585    0.44288716    -5.0251853      0.44301616    -5.1824912    
       412   412            279.37748     -78954.392      6244.5367     -8.4875971     -8.5233168      0.035719639    0.44291391    -5.5795688      0.44305889    -5.5596408    
       413   413            277.96115     -78962.626      3655.6037     -8.4884823     -8.5240209      0.035538555    0.44300868    -3.29732        0.44316884    -3.1516591    
       414   414            273.54473     -78968.122     -189.71819     -8.4890731     -8.524047       0.034973897    0.44314082     0.10555413     0.4433138      0.39510572   
       415   415            271.71706     -78973.593     -5006.4771     -8.4896612     -8.5244014      0.03474022     0.44326688     4.3453204      0.44344863     4.8283698    
       416   416            274.44199     -78979.334     -6692.4868     -8.4902784     -8.525367       0.035088615    0.4433346      5.8047093      0.44351883     6.4033048    
       417   417            275.99421     -78984.057     -2914.6155     -8.4907861     -8.5260732      0.035287073    0.44332803     2.3831251      0.44350722     3.0302679    
       418   418            274.19752     -78987.685     -143.56362     -8.4911761     -8.5262335      0.035057358    0.44329219    -0.095494958    0.44345852     0.55341954   
       419   419            273.12877     -78991.187      1677.0599     -8.4915526     -8.5264733      0.034920713    0.44325884    -1.7215121      0.44340473    -1.097339     
       420   420            273.44862     -78994.043      2547.2927     -8.4918596     -8.5268212      0.034961607    0.443248      -2.4770967      0.44336647    -1.9340931    
       421   421            272.27063     -78996.227      3788.5858     -8.4920944     -8.5269054      0.034810997    0.44326822    -3.5419821      0.44335353    -3.1016753    
       422   422            272.00041     -78997.556      2976.1629     -8.4922373     -8.5270137      0.034776448    0.44333156    -2.7281284      0.44337945    -2.4359       
[...]
     14895   14895          302.61791     -78207.674      3851.0076     -8.407325      -8.446016       0.03869103    -0.27159384    -3.5448001      0.44950184    -0.23831454   
     14896   14896          297.22796     -78208.109      7645.8707     -8.4073718     -8.4453737      0.038001901   -0.27166592    -4.7706366      0.44926757    -3.9920744    
     14897   14897          278.9695      -78206.97       12364.854     -8.4072492     -8.4429167      0.035667476   -0.27173801    -9.1312958      0.44905921    -8.5296059    
     14898   14898          278.46823     -78206.831      9212.7381     -8.4072344     -8.4428377      0.035603387   -0.27181009    -5.7375878      0.44890578    -5.8007889    
     14899   14899          293.80473     -78212.074      4490.6985     -8.4077979     -8.4453621      0.037564226   -0.27188218     1.4505687      0.44878971    -2.2124207    
     14900   14900          297.71847     -78208.754      10769.746     -8.407441      -8.4455056      0.038064615   -0.27195426    -0.11562396     0.44868798    -8.8444028    
     14901   14901          293.83214     -78209.925      16502.855     -8.407567      -8.4451347      0.037567731   -0.27202634    -4.9717257      0.448643      -14.617618    
     14902   14902          294.33554     -78210.079      17090.578     -8.4075835     -8.4452156      0.037632093   -0.27209843    -6.5315261      0.44869165    -15.321046    
     14903   14903          292.78951     -78209.775      10848.768     -8.4075508     -8.4449852      0.037434426   -0.27217051    -4.359315       0.44883833    -9.6633727    
     14904   14904          295.99617     -78210.59       7031.6164     -8.4076385     -8.4454829      0.037844411   -0.27224259    -4.1204933      0.44904674    -5.8113229    
     14905   14905          299.78094     -78208.042      302.45561     -8.4073645     -8.4456928      0.038328311   -0.27231468    -1.4699132      0.44929215     0.97187524   
     14906   14906          296.37222     -78209.135     -13128.254     -8.407482      -8.4453745      0.037892491   -0.27238676     3.9101412      0.44953111     13.709689    
     14907   14907          292.35505     -78205.069     -8686.8685     -8.4070449     -8.4444238      0.037378878   -0.27245884     1.5338579      0.44968201     10.068469    
     14908   14908          303.13252     -78204.192      2138.4739     -8.4069506     -8.4457074      0.038756825   -0.27253093    -3.8802185      0.44976826     0.75924022   
     14909   14909          323.13545     -78205.356      456.2587      -8.4070758     -8.4483901      0.041314287   -0.27260301    -3.012345       0.44984956     2.5682545    
     14910   14910          329.0281      -78205.317     -12270.646     -8.4070715     -8.4491392      0.042067689   -0.2726751      2.2331001      0.44991434     14.193082    
     14911   14911          313.78379     -78204.815     -17303.644     -8.4070176     -8.4471363      0.040118636   -0.27274718     5.2290889      0.44988813     18.648609    
     14912   14912          296.54376     -78206.379     -14857.75      -8.4071857     -8.4451002      0.037914423   -0.27281926     3.4153564      0.44974253     16.060519    
     14913   14913          291.05226     -78209.031     -15262.013     -8.4074708     -8.4446831      0.037212311   -0.27289135     5.4162503      0.4494943      16.086217    
     14914   14914          294.90775     -78211.527     -7784.8229     -8.4077392     -8.4454445      0.037705252   -0.27296343     3.7797196      0.44914348     8.740192     
     14915   14915          302.97004     -78215.266     -2109.1158     -8.4081411     -8.4468771      0.038736051   -0.27303551     1.7859102      0.44873729     2.8237751    
     14916   14916          301.73969     -78217.926     -4765.7007     -8.4084271     -8.4470058      0.038578746   -0.2731076      4.1263764      0.44831368     4.5143929    
     14917   14917          290.49707     -78213.841      11721.408     -8.407988      -8.4451293      0.037141327   -0.27317968    -3.0274004      0.44786191    -11.104275    
     14918   14918          290.93786     -78216.151      15410.059     -8.4082363     -8.445434       0.037197684   -0.27325177    -3.8169376      0.44748174    -14.925238    
     14919   14919          293.38648     -78217.48       17493.431     -8.4083791     -8.4458898      0.03751075    -0.27332385    -6.4472807      0.44719737    -17.204765    
     14920   14920          289.97153     -78216.194      17280.647     -8.4082408     -8.445315       0.037074134   -0.27339593    -6.5171058      0.44702312    -16.95806     
     14921   14921          287.5543      -78219.163      15280.022     -8.40856       -8.4453251      0.036765081   -0.27346802    -9.3087644      0.44695722    -14.722395    
     14922   14922          283.86667     -78218.983      9215.5364     -8.4085407     -8.4448343      0.036293602   -0.2735401     -6.8808448      0.44698524    -8.7457824    
     14923   14923          283.32288     -78220.049      7077.2041     -8.4086553     -8.4448793      0.036224075   -0.27361218    -4.0614905      0.44706898    -6.3200932    
     14924   14924          281.48436     -78221.948     -906.38897     -8.4088594     -8.4448484      0.035989012   -0.27368427     1.3983305      0.4471929      1.4887566    
     14925   14925          274.85963     -78219.082     -3628.1024     -8.4085513     -8.4436933      0.035142012   -0.27375635     3.960818       0.44730719     4.5578895    
     14926   14926          276.39606     -78218.65      -9465.9584     -8.4085049     -8.4438433      0.035338451   -0.27382844     3.9295961      0.44739232     10.013669    
     14927   14927          286.68803     -78217.828     -6114.1522     -8.4084165     -8.4450708      0.036654325   -0.27390052    -2.5941425      0.44741352     7.1000485    
     14928   14928          299.43823     -78217.53       1124.0887     -8.4083845     -8.446669       0.038284494   -0.2739726     -5.8691764      0.44738947     0.31940787   
     14929   14929          306.24583     -78216.738     -1441.3195     -8.4082994     -8.4474542      0.039154876   -0.27404469    -4.7315601      0.44736344     2.1616113    
     14930   14930          304.44596     -78213.952     -1660.3779     -8.4079998     -8.4469246      0.038924755   -0.27411677    -2.9222608      0.44732368     1.6563948    
     14931   14931          300.26279     -78209.98      -379.48079     -8.4075728     -8.4459628      0.038389917   -0.27418885    -3.768245       0.44727344    -0.026354376  
     14932   14932          300.50396     -78210.005     -1328.7578     -8.4075755     -8.4459963      0.038420752   -0.27426094    -1.786729       0.44722345     0.47430921   
     14933   14933          304.36557     -78207.802      54.126196     -8.4073387     -8.4462532      0.038914476   -0.27433302    -1.3190527      0.44717052    -1.0850915    
     14934   14934          308.31168     -78204.677     -5689.55       -8.4070027     -8.4464217      0.039419004   -0.27440511     0.087834334    0.44712459     3.7850263    
     14935   14935          306.57731     -78199.686     -8641.322      -8.4064662     -8.4456634      0.039197257   -0.27447719     1.0759007      0.44705463     6.1498087    
     14936   14936          305.29256     -78197.897     -10578.909     -8.4062739     -8.4453069      0.039032995   -0.27454927     2.2848983      0.44694564     8.2236803    
     14937   14937          308.15884     -78196.628     -7788.0096     -8.4061375     -8.445537       0.039399462   -0.27462136     0.06098028     0.44678449     6.1277548    
     14938   14938          309.62804     -78192.958     -3303.8166     -8.405743      -8.4453303      0.039587306   -0.27469344    -2.8342422      0.4465846      2.3431339    
     14939   14939          311.65167     -78189.072      853.82717     -8.4053253     -8.4451713      0.039846036   -0.27476552    -5.153659       0.44637012    -1.3693795    
     14940   14940          312.18792     -78187.796      1329.3278     -8.4051881     -8.4451027      0.039914597   -0.27483761    -5.6554157      0.44616465    -1.6539979    
     14941   14941          308.62635     -78184.073      11704.077     -8.4047878     -8.444247       0.039459235   -0.27490969    -11.146548      0.44597       -10.825773    
     14942   14942          305.64987     -78182.909      20586.825     -8.4046627     -8.4437414      0.039078679   -0.27498178    -14.935983      0.4458444     -18.433774    
     14943   14943          301.22206     -78180.015      13194.291     -8.4043516     -8.4428641      0.038512564   -0.27505386    -8.72669        0.44583602    -11.625807    
     14944   14944          300.64475     -78179.864     -862.65496     -8.4043354     -8.4427741      0.038438752   -0.27512594    -2.9762386      0.44590148     1.1284373    
     14945   14945          302.9408      -78176.221     -7913.7968     -8.4039438     -8.4426761      0.038732313   -0.27519803     1.1941676      0.44595971     7.5464797    
     14946   14946          303.38649     -78178.19      -5876.28       -8.4041554     -8.4429447      0.038789296   -0.27527011     2.9236869      0.44596998     5.6514694    
     14947   14947          300.15183     -78174.188      3812.5126     -8.4037253     -8.442101       0.038375731   -0.27534219     0.55261249     0.44594437    -3.4174856    
     14948   14948          306.66681     -78174.357     -1435.7956     -8.4037434     -8.4429521      0.0392087     -0.27541428     4.1854656      0.4459405      0.87812658   
     14949   14949          312.70868     -78174.538     -146.10317     -8.4037629     -8.443744       0.039981179   -0.27548636     3.7199949      0.44593108    -0.87134792   
     14950   14950          308.26048     -78171.446     -2541.3559     -8.4034305     -8.442843       0.039412457   -0.27555845     5.1767017      0.44592721     0.91524915   
     14951   14951          306.2701      -78169.984     -4397.5393     -8.4032732     -8.4424312      0.039157979   -0.27563053     6.5636803      0.44591756     2.2270224    
     14952   14952          309.08244     -78167.777     -9088.2095     -8.403036      -8.4425535      0.039517549   -0.27570261     8.3836862      0.44589381     6.1613349    
     14953   14953          316.6408      -78169.726     -11220.862     -8.4032456     -8.4437295      0.040483918   -0.2757747      10.525341      0.44583102     7.8018035    
     14954   14954          320.58719     -78169.306     -7105.6991     -8.4032004     -8.4441889      0.040988481   -0.27584678     10.931732      0.44571883     4.0844237    
     14955   14955          315.35204     -78165.357      1809.7922     -8.4027759     -8.443095       0.040319144   -0.27591886     7.9585425      0.44558092    -3.9478105    
     14956   14956          314.51728     -78166.452      11962.621     -8.4028936     -8.443106       0.040212417   -0.27599095     1.1307508      0.44546822    -13.040353    
     14957   14957          320.08255     -78167.546      19833.287     -8.4030112     -8.4439351      0.040923961   -0.27606303    -8.8152934      0.44543833    -19.868241    
     14958   14958          322.18117     -78169.011      17433.968     -8.4031686     -8.4443609      0.041192279   -0.27613512    -9.497426       0.4455344     -17.009727    
     14959   14959          317.65172     -78171.378     -404.14325     -8.4034231     -8.4440363      0.040613168   -0.2762072     -2.7759082      0.44573817     0.073435893  
     14960   14960          309.94398     -78173.462     -17534.666     -8.4036472     -8.4432749      0.0396277     -0.27627928     6.1706215      0.44594126     16.146167    
     14961   14961          302.20332     -78177.436     -25975.315     -8.4040744     -8.4427124      0.038638022   -0.27635137     10.449631      0.44604179     24.023488    
     14962   14962          300.1731      -78181.956     -22718.348     -8.4045602     -8.4429387      0.03837845    -0.27642345     7.0409369      0.44598991     20.925081    
     14963   14963          306.84464     -78186.828     -12156.471     -8.405084      -8.4443154      0.039231435   -0.27649553     0.91610442     0.44580548     11.278021    
     14964   14964          311.26938     -78195.881      703.53529     -8.4060573     -8.4458544      0.039797158   -0.27656762    -6.064523       0.44554988    -0.77755671   
     14965   14965          299.22797     -78197.935      13227.553     -8.406278      -8.4445356      0.038257612   -0.2766397     -8.5069127      0.44529957    -12.793112    
     14966   14966          282.13396     -78199.166      14859.69      -8.4064103     -8.4424824      0.036072067   -0.27671179    -7.6404221      0.44513061    -14.649049    
     14967   14967          277.70495     -78202.656      7211.1538     -8.4067855     -8.4422913      0.035505798   -0.27678387    -6.1815182      0.44505459    -8.1829852    
     14968   14968          284.0022      -78206.675      9711.7703     -8.4072176     -8.4435285      0.03631093    -0.27685595    -9.1414037      0.44503046    -10.857093    
     14969   14969          286.91401     -78207.993      9067.2452     -8.4073592     -8.4440424      0.036683217   -0.27692804    -8.6931558      0.44507506    -10.579129    
     14970   14970          285.56038     -78207.373      4253.2153     -8.4072926     -8.4438028      0.036510149   -0.27700012    -6.4725195      0.44518656    -6.1457876    
     14971   14971          286.59143     -78210.688     -12298.091     -8.4076489     -8.4442909      0.036641973   -0.2770722      2.8184005      0.44533682     9.1399771    
     14972   14972          288.05949     -78209.334     -8468.8882     -8.4075034     -8.444333       0.036829672   -0.27714429     2.2757862      0.44542909     6.0737908    
     14973   14973          288.72018     -78209.286     -4073.3887     -8.4074983     -8.4444124      0.036914144   -0.27721637     2.1358796      0.44548284     2.4732194    
     14974   14974          293.0907      -78207.949     -4369.1755     -8.4073545     -8.4448274      0.037472935   -0.27728846     2.5073122      0.4455209      3.0134859    
     14975   14975          304.64741     -78209.922     -4776.0848     -8.4075666     -8.4465171      0.03895051    -0.27736054     3.8953811      0.44553986     3.6288122    
     14976   14976          309.25227     -78208.866      5195.5769     -8.407453      -8.4469923      0.039539262   -0.27743262    -0.51126989     0.44553585    -5.1035177    
     14977   14977          303.93762     -78207.075      5327.7343     -8.4072606     -8.4461204      0.038859761   -0.27750471    -2.4148933      0.44556415    -4.9881816    
     14978   14978          298.89681     -78208.13       4227.6865     -8.407374      -8.4455892      0.038215271   -0.27757679    -5.1638833      0.44562399    -3.7654204    
     14979   14979          299.57558     -78206.552     -1932.5727     -8.4072044     -8.4455064      0.038302054   -0.27764887    -1.0774537      0.44570759     1.9092638    
     14980   14980          306.6146      -78207.871     -1974.3291     -8.4073462     -8.4465482      0.039202024   -0.27772096     3.620116       0.44577903     1.630845     
     14981   14981          307.52435     -78209.553     -4560.7737     -8.4075269     -8.4468452      0.039318339   -0.27779304     6.4807527      0.44584008     3.4759957    
     14982   14982          299.36788     -78209.767     -458.92649     -8.4075499     -8.4458254      0.038275499   -0.27786513     3.3939115      0.4458791     -0.51266797   
     14983   14983          293.53373     -78207.65       2794.3689     -8.4073223     -8.4448519      0.037529577   -0.27793721    -0.60417776     0.44592132    -3.6071704    
     14984   14984          291.08528     -78210.283     -7917.054      -8.4076054     -8.4448219      0.037216533   -0.27800929     1.2444711      0.44598633     5.9583559    
     14985   14985          286.29998     -78208.06      -7532.4981     -8.4073665     -8.4439712      0.036604711   -0.27808138    -0.53373213     0.4460136      5.1901624    
     14986   14986          287.58991     -78208.231     -599.96954     -8.4073848     -8.4441544      0.036769634   -0.27815346    -1.6554384      0.44600802    -1.4034595    
     14987   14987          296.69912     -78206.371      2774.9207     -8.4071849     -8.4451192      0.037934286   -0.27822554    -2.1328475      0.44601133    -4.708695     
     14988   14988          303.43564     -78207.549     -652.70551     -8.4073115     -8.446107       0.03879558    -0.27829763     0.29113544     0.44604444    -1.5362974    
     14989   14989          296.94185     -78204.125      3444.7923     -8.4069434     -8.4449088      0.037965321   -0.27836971    -0.52297663     0.44608723    -4.782917     
     14990   14990          290.7664      -78202.766     -2049.59       -8.4067974     -8.4439731      0.037175762   -0.2784418      1.8648632      0.44616023     0.68637974   
     14991   14991          297.78919     -78203.869     -4017.0972     -8.406916      -8.4449896      0.038073656   -0.27851388     0.49309629     0.44622882     2.9335715    
     14992   14992          301.83921     -78202.467      301.58757     -8.4067653     -8.4453567      0.038591469   -0.27858596    -2.0878343      0.44627881    -0.44324401   
     14993   14993          301.20923     -78198.264      6707.0553     -8.4063134     -8.4448243      0.038510924   -0.27865805    -3.3261657      0.44633155    -5.9012197    
     14994   14994          308.33789     -78198.723      13737.848     -8.4063627     -8.4457851      0.039422355   -0.27873013    -5.5110485      0.44642157    -12.091063    
     14995   14995          306.85503     -78195.482      6405.9955     -8.4060143     -8.4452471      0.039232765   -0.27880221    -1.4174559      0.44658795    -5.0295492    
     14996   14996          298.70639     -78191.825      2548.58       -8.4056212     -8.4438121      0.038190924   -0.2788743      1.4288023      0.44678598    -1.3336877    
     14997   14997          302.6995      -78189.09       519.17876     -8.4053271     -8.4440286      0.038701462   -0.27894638     2.7859743      0.44699227     0.61712912   
     14998   14998          310.85591     -78189.734     -8058.9662     -8.4053965     -8.4451407      0.039744295   -0.27901847     3.8241261      0.44719445     8.3647327    
     14999   14999          311.79224     -78184.264     -5684.1865     -8.4048084     -8.4446724      0.039864008   -0.27909055     1.4887049      0.44734352     5.8513282    
     15000   15000          313.89104     -78182.028     -2280.7722     -8.404568      -8.4447003      0.040132349   -0.27916263    -1.650975       0.44745543     2.2124217    
Loop time of 214.94 on 64 procs for 10000 steps with 400 atoms

Performance: 4.020 ns/day, 5.971 hours/ns, 46.525 timesteps/s
6187.7% CPU use with 1 MPI tasks x 64 OpenMP threads

MPI task timing breakdown:
Section |  min time  |  avg time  |  max time  |%varavg| %total
---------------------------------------------------------------
Pair    | 212.76     | 212.76     | 212.76     |   0.0 | 98.98
Neigh   | 0.32369    | 0.32369    | 0.32369    |   0.0 |  0.15
Comm    | 0.06993    | 0.06993    | 0.06993    |   0.0 |  0.03
Output  | 0.90438    | 0.90438    | 0.90438    |   0.0 |  0.42
Modify  | 0.83221    | 0.83221    | 0.83221    |   0.0 |  0.39
Other   |            | 0.0538     |            |       |  0.03

Nlocal:            400 ave         400 max         400 min
Histogram: 1 0 0 0 0 0 0 0 0 0
Nghost:           1250 ave        1250 max        1250 min
Histogram: 1 0 0 0 0 0 0 0 0 0
Neighs:          63304 ave       63304 max       63304 min
Histogram: 1 0 0 0 0 0 0 0 0 0

Total # of neighbors = 63304
Ave neighs/atom = 158.26
Neighbor list builds = 94
Dangerous builds = 0
Total wall time: 0:05:11
