LAMMPS (23 Jun 2022 - Update 2)
  using 64 OpenMP thread(s) per MPI task
################################################################################
# GRAPHENE: TENSILE TEST
################################################################################
#
# This is a lammps input file to simulate the stretching or compression of
# graphene. The output data can be used to calculate the Young's modulus and the
# breaking stress/strain. Buckling of a graphene sheet can be studied by
# compressing the sheet.
#
# When using this script, make sure that lammps is installed with the USER-REAXC
# and the MANYBODY packages.
#
# Date: 28/03/2016
# Author: Jeroen Mulkers
# Mail: jeroen.mulkers@uantwerpen.be
#
################################################################################


# UNITS
# 'real' units are needed when using reax/c. The default time step (1fs) for
# real units is used. Some useful conversion factors are defined.
units        real
timestep     0.1
variable     fpress  equal 0.000101325  # atm -> GPa
variable     fenergy equal 0.043        # Kcal/mole -> eV

# GRAPHENE SHEET
# The atom positions and the simulation box size will be read from a data file.
# Reactive force fields (reaxFF) are used to describe the interaction between
# the carbon atoms.(The pair_style reax is deprecated. so we use the modern
# reax/c implementation)
dimension    3
boundary     p p f
atom_style   charge
read_data    graphene_N400.dat
Reading data file ...
  orthogonal box = (0 0 -10) to (30 17.3205 10)
  1 by 1 by 1 MPI processor grid
  reading atoms ...
  400 atoms
  read_data CPU = 0.033 seconds
pair_style   reax/c NULL checkqeq no
pair_coeff   * * ffield.reax C
WARNING: Changed valency_val to valency_boc for X (src/REAXFF/reaxff_ffield.cpp:296)

# OUTPUT
# Calculate the average total, kinetic and potential energy per atom. Stress and
# strain are defined in x and y direction. When calculating the stress, we
# assume that the thickness of graphene is 3.35A.
variable     tmp     equal lx
variable     lx0     equal ${tmp}
variable     lx0     equal 30
variable     tmp     equal ly
variable     ly0     equal ${tmp}
variable     ly0     equal 17.3205
variable     etotal  equal etotal/atoms*${fenergy} #eV/atom
variable     etotal  equal etotal/atoms*0.043 
variable     pe      equal     pe/atoms*${fenergy} #eV/atom
variable     pe      equal     pe/atoms*0.043 
variable     ke      equal     ke/atoms*${fenergy} #eV/atom
variable     ke      equal     ke/atoms*0.043 
variable     strainx equal (lx-${lx0})/${lx0}
variable     strainx equal (lx-30)/${lx0}
variable     strainx equal (lx-30)/30
variable     strainy equal (ly-${ly0})/${ly0}
variable     strainy equal (ly-17.3205)/${ly0}
variable     strainy equal (ly-17.3205)/17.3205
variable     stressx equal -pxx*(lz/3.35)*${fpress} #GPa
variable     stressx equal -pxx*(lz/3.35)*0.000101325 
variable     stressy equal -pyy*(lz/3.35)*${fpress} #GPa
variable     stressy equal -pyy*(lz/3.35)*0.000101325 
thermo_style custom step time temp etotal press v_etotal v_pe v_ke              v_strainx v_stressx v_strainy v_stressy

# TEMPERATURE SETTINGS
variable     temp index 500
variable     seed index 1717
velocity     all create ${temp} ${seed} dist uniform
velocity     all create 500 ${seed} dist uniform
velocity     all create 500 1717 dist uniform

# EQUILIBRATION
# Relaxation of the system will be done in a NPT ensemble. The size of the
# simulation box can change in x and y direction to resolve stresses. The number
# of time steps should be large enough to relax the system in your final
# simulation but can be small for debugging purposes.
fix          fnpt all npt temp ${temp} ${temp} 10 x 0 0 500 y 0 0 500
fix          fnpt all npt temp 500 ${temp} 10 x 0 0 500 y 0 0 500
fix          fnpt all npt temp 500 500 10 x 0 0 500 y 0 0 500
thermo       1
run          1000

CITE-CITE-CITE-CITE-CITE-CITE-CITE-CITE-CITE-CITE-CITE-CITE-CITE

Your simulation uses code contributions which should be cited:

- pair reaxff command:

@Article{Aktulga12,
 author = {H. M. Aktulga, J. C. Fogarty, S. A. Pandit, A. Y. Grama},
 title = {Parallel reactive molecular dynamics: Numerical methods and algorithmic techniques},
 journal = {Parallel Computing},
 year =    2012,
 volume =  38,
 pages =   {245--259}
}

CITE-CITE-CITE-CITE-CITE-CITE-CITE-CITE-CITE-CITE-CITE-CITE-CITE

Neighbor list info ...
  update every 1 steps, delay 10 steps, check yes
  max neighbors/atom: 2000, page size: 100000
  master list distance cutoff = 12
  ghost atom cutoff = 12
  binsize = 6, bins = 5 3 4
  1 neighbor lists, perpetual/occasional/extra = 1 0 0
  (1) pair reax/c, perpetual
      attributes: half, newton off, ghost
      pair build: half/bin/newtoff/ghost
      stencil: full/ghost/bin/3d
      bin: standard
Per MPI rank memory allocation (min/avg/max) = 91.65 | 91.65 | 91.65 Mbytes
   Step          Time           Temp          TotEng         Press         v_etotal         v_pe           v_ke        v_strainx      v_stressx      v_strainy      v_stressy   
         0   0              500            28240.905      954215.61      3.0358972      2.97197        0.063927198    0             -865.07458      0             -865.07444    
         1   0.1            499.89905      28236.189      954121.25      3.0353903      2.971476       0.063914291    1.0879684e-05 -864.97485      1.0879682e-05 -865.0016     
         2   0.2            499.59655      28222.044      953838.08      3.0338697      2.9699941      0.063875615    4.3517407e-05 -864.70251      4.3518077e-05 -864.75609    
         3   0.3            499.09415      28198.479      953365.93      3.0313365      2.9675251      0.063811381    9.7909829e-05 -864.25741      9.7912518e-05 -864.33771    
         4   0.4            498.39463      28165.509      952704.48      3.0277923      2.9640703      0.063721945    0.00017405149 -863.63927      0.00017405822 -863.7462     
         5   0.5            497.50195      28123.156      951853.32      3.0232392      2.9596314      0.063607811    0.00027193463 -862.84771      0.00027194809 -862.98114    
         6   0.6            496.42116      28071.445      950811.91      3.0176804      2.9542108      0.063469628    0.00039154895 -861.88224      0.0003915725  -862.04206    
         7   0.7            495.15848      28010.412      949579.6       3.0111193      2.9478111      0.063308188    0.00053288127 -860.74229      0.00053291895 -860.92835    
         8   0.8            493.72119      27940.096      948155.67      3.0035603      2.9404359      0.063124425    0.00069591519 -859.42719      0.00069597168 -859.63933    
         9   0.9            492.1177       27860.543      946539.29      2.9950084      2.932089       0.062919411    0.00088063058 -857.93619      0.00088071124 -858.17425    
        10   1              490.35746      27771.809      944729.57      2.9854695      2.9227752      0.062694357    0.0010870031  -856.26848      0.0010871139  -856.53229    
        11   1.1            488.45097      27673.955      942725.56      2.9749502      2.9124996      0.062450604    0.0013150035  -854.42318      0.0013151512  -854.71256    
        12   1.2            486.40975      27567.049      940526.25      2.9634578      2.9012682      0.062189624    0.0015645972  -852.39939      0.0015647891  -852.71414    
        13   1.3            484.24628      27451.169      938130.62      2.9510007      2.8890877      0.061913015    0.0018357434  -850.19616      0.0018359874  -850.53608    
        14   1.4            481.97401      27326.4        935537.63      2.937588       2.8759655      0.061622495    0.0021283941  -847.81256      0.0021286988  -848.17745    
        15   1.5            479.60728      27192.836      932746.29      2.9232299      2.86191        0.061319899    0.0024424937  -845.24765      0.0024428685  -845.63729    
        16   1.6            477.16132      27050.58       929755.63      2.9079373      2.8469302      0.061007173    0.0027779778  -842.50055      0.0027784325  -842.91474    
        17   1.7            474.65216      26899.744      926564.75      2.8917225      2.8310361      0.060686365    0.0031347724  -839.57044      0.0031353176  -840.00895    
        18   1.8            472.09661      26740.451      923172.87      2.8745985      2.8142389      0.060359627    0.0035127928  -836.45661      0.0035134396  -836.91922    
        19   1.9            469.5122       26572.834      919579.36      2.8565796      2.7965504      0.060029198    0.0039119426  -833.15845      0.0039127028  -833.64493    
        20   2              466.91712      26397.034      915783.75      2.8376812      2.7779838      0.059697405    0.0043321126  -829.67555      0.0043329985  -830.18566    
        21   2.1            464.33018      26213.207      911785.81      2.8179197      2.7585531      0.059366654    0.0047731796  -826.00766      0.0047742044  -826.54118    
        22   2.2            461.77074      26021.516      907585.56      2.797313       2.7382736      0.059039419    0.0052350058  -822.1548       0.0052361829  -822.71149    
        23   2.3            459.25866      25822.139      903183.35      2.77588        2.7171617      0.058718238    0.0057174367  -818.11727      0.0057187804  -818.69691    
        24   2.4            456.81418      25615.264      898579.66      2.7536408      2.6952351      0.058405701    0.0062203009  -813.89533      0.0062218259  -814.498      
        25   2.5            454.45786      25401.09       893775.43      2.7306171      2.6725127      0.058104435    0.0067434084  -809.49016      0.0067451301  -810.11527    
        26   2.6            452.21059      25179.829      888772.52      2.7068317      2.6490146      0.057817111    0.0072865497  -804.90327      0.007288484   -805.55055    
        27   2.7            450.09331      24951.707      883571.24      2.6823085      2.6247621      0.057546408    0.0078494944  -800.13478      0.0078516577  -800.80428    
        28   2.8            448.12719      24716.958      878176.35      2.657073       2.599778       0.057295031    0.0084319905  -795.18919      0.0084343998  -795.88053    
        29   2.9            446.33391      24475.831      872592.92      2.6311519      2.5740861      0.057065751    0.0090337631  -790.07093      0.0090364359  -790.78408    
        30   3              444.73493      24228.585      866820.84      2.6045729      2.5477116      0.056861316    0.0096545138  -784.77968      0.0096574681  -785.51504    
        31   3.1            443.35149      23975.491      860866.45      2.5773653      2.5206809      0.056684437    0.010293919   -779.32073      0.010297174   -780.07956    
        32   3.2            442.20494      23716.831      854736.68      2.5495593      2.4930215      0.056537845    0.010951631   -773.70178      0.010955205   -774.48253    
        33   3.3            441.31668      23452.895      848439.31      2.5211863      2.464762       0.056424277    0.011627275   -767.93069      0.011631187   -768.73019    
        34   3.4            440.70786      23183.986      841980.2       2.4922785      2.435932       0.056346437    0.01232045    -762.01107      0.01232472    -762.82952    
        35   3.5            440.39915      22910.412      835366.44      2.4628693      2.4065624      0.056306968    0.013030728   -755.94843      0.013035377   -756.78787    
        36   3.6            440.41081      22632.493      828607.2       2.432993       2.3766846      0.056308457    0.013757653   -749.75278      0.013762702   -750.61187    
        37   3.7            440.76267      22350.554      821712.36      2.4026846      2.3463311      0.056353444    0.014500744   -743.43271      0.014506213   -744.31083    
        38   3.8            441.47421      22064.925      814695.13      2.3719795      2.315535       0.056444417    0.015259492   -737.00001      0.015265402   -737.89691    
        39   3.9            442.56445      21775.941      807567.22      2.3409137      2.2843299      0.05658381     0.016033359   -730.4638       0.016039732   -731.38224    
        40   4              444.0518       21483.941      800341.15      2.3095236      2.2527496      0.056773975    0.016821784   -723.83832      0.016828642   -724.7753     
        41   4.1            445.95403      21189.263      793031.27      2.2778458      2.2208286      0.057017183    0.017624178   -717.13486      0.017631543   -718.09078    
        42   4.2            448.28819      20892.249      785649.47      2.2459167      2.1886011      0.057315616    0.018439929   -710.36494      0.018447824   -711.33876    
        43   4.3            451.07065      20593.237      778213.83      2.213773       2.1561016      0.057671366    0.019268401   -703.54403      0.019276847   -704.53657    
        44   4.4            454.31711      20292.563      770741.39      2.1814506      2.1233641      0.05808644     0.020108936   -696.68782      0.020117956   -697.69939    
        45   4.5            458.04252      19990.559      763248.74      2.1489851      2.0904224      0.058562749    0.020960856   -689.8111       0.020970473   -690.84252    
        46   4.6            462.26101      19687.549      755751.91      2.1164116      2.0573095      0.059102102    0.021823463   -682.92943      0.021833699   -683.97952    
        47   4.7            466.98589      19383.852      748271.05      2.0837641      2.0240579      0.059706198    0.022696044   -676.06024      0.022706923   -677.12942    
        48   4.8            472.22965      19079.775      740822.3       2.0510758      1.9906992      0.060376636    0.023577872   -669.21857      0.023589417   -670.30651    
        49   4.9            478.00396      18775.616      733425.74      2.0183787      1.9572638      0.061114907    0.024468208   -662.42222      0.02448044    -663.52933    
        50   5              484.31961      18471.661      726100.73      1.9857035      1.9237811      0.06192239     0.025366303   -655.68947      0.025379247   -656.81478    
        51   5.1            491.18651      18168.181      718863.81      1.9530794      1.8902791      0.062800354    0.026271403   -649.03458      0.02628508    -650.17849    
        52   5.2            498.61371      17865.434      711733.19      1.9205342      1.8567842      0.063749954    0.027182749   -642.47558      0.027197182   -643.63548    
        53   5.3            506.60938      17563.664      704727.39      1.8880939      1.8233217      0.064772236    0.028099583   -636.02755      0.028114795   -637.2042     
        54   5.4            515.18078      17263.097      697863.5       1.8557829      1.7899148      0.065868127    0.029021149   -629.70679      0.029037162   -630.89931    
        55   5.5            524.33435      16963.942      691157.9       1.8236237      1.7565853      0.067038451    0.029946696   -623.52818      0.029963532   -624.73559    
        56   5.6            534.07564      16666.391      684625.76      1.7916371      1.7233531      0.068283918    0.030875484   -617.50461      0.030893165   -618.72762    
        57   5.7            544.40934      16370.619      678282.26      1.7598416      1.6902365      0.069605127    0.031806782   -611.65103      0.031825329   -612.88792    
        58   5.8            555.33926      16076.783      672140.63      1.7282542      1.6572517      0.071002565    0.032739877   -605.97863      0.032759311   -607.22921    
        59   5.9            566.86838      15785.022      666212.72      1.6968899      1.6244132      0.072476614    0.033674071   -600.49852      0.033694413   -601.76181    
        60   6              578.99885      15495.456      660510.64      1.6657615      1.591734       0.074027547    0.03460869    -595.22202      0.03462996    -596.49629    
        61   6.1            591.73193      15208.189      655043.93      1.6348804      1.5592248      0.075655528    0.03554308    -590.15694      0.035565298   -591.44203    
        62   6.2            605.06811      14923.308      649821.65      1.6042556      1.526895       0.077360618    0.036476617   -585.31176      0.036499802   -586.6069     
        63   6.3            619.00704      14640.881      644850.32      1.5738947      1.4947519      0.079142771    0.037408703   -580.69232      0.037432874   -581.99679    
        64   6.4            633.54755      14360.962      640136.52      1.5438034      1.4628015      0.081001839    0.038338771   -576.30474      0.038363947   -577.61741    
        65   6.5            648.68768      14083.588      635683.79      1.5139857      1.4310481      0.08293757     0.039266288   -572.15213      0.039292486   -573.47193    
        66   6.6            664.42462      13808.783      631495.8       1.4844442      1.3994945      0.084949607    0.040190754   -568.23789      0.040217991   -569.56355    
        67   6.7            680.75477      13536.555      627574.51      1.4551796      1.3681421      0.08703749     0.041111704   -564.56356      0.041139997   -565.89411    
        68   6.8            697.67373      13266.899      623920.29      1.4261916      1.3369909      0.089200652    0.042028713   -561.12948      0.042058078   -562.46384    
        69   6.9            715.17623      12999.797      620532.67      1.3974782      1.3060398      0.091438425    0.042941392   -557.93527      0.042971844   -559.27215    
        70   7              733.25623      12735.221      617410.09      1.3690362      1.2752862      0.093750031    0.04384939    -554.97936      0.043880944   -556.31766    
        71   7.1            751.90678      12473.129      614549.87      1.3408613      1.2447268      0.096134587    0.044752395   -552.25924      0.044785065   -553.59788    
        72   7.2            771.12012      12213.47       611948.44      1.3129481      1.214357       0.098591097    0.045650136   -549.77177      0.045683936   -551.10935    
        73   7.3            790.88758      11956.184      609601.66      1.2852898      1.1841714      0.10111845     0.046542379   -547.51305      0.046577321   -548.84837    
        74   7.4            811.1996       11701.201      607504.48      1.2578791      1.1541636      0.10371543     0.047428928   -545.4784       0.047465026   -546.81031    
        75   7.5            832.04574      11448.441      605651.04      1.2307074      1.1243267      0.1063807      0.048309628   -543.66241      0.048346893   -544.98983    
        76   7.6            853.41461      11197.818      604035.31      1.2037654      1.0946526      0.10911281     0.049184359   -542.05966      0.0492228     -543.38131    
        77   7.7            875.29395      10949.239      602650.44      1.1770432      1.065133       0.11191018     0.050053035   -540.66392      0.050092665   -541.97846    
        78   7.8            897.67057      10702.604      601489.67      1.1505299      1.0357588      0.11477113     0.05091561    -539.46877      0.050956437   -540.77531    
        79   7.9            920.53043      10457.806      600545.35      1.1242141      1.0065202      0.11769386     0.051772067   -538.46729      0.0518141     -539.76479    
        80   8              943.85865      10214.732      599810.26      1.0980837      0.97740721     0.12067648     0.052622423   -537.65289      0.052665671   -538.94033    
        81   8.1            967.63966      9973.2662      599276.49      1.0721261      0.94840913     0.12371698     0.053466726   -537.01838      0.053511197   -538.29469    
        82   8.2            991.85724      9733.2864      598936.75      1.0463283      0.91951498     0.12681331     0.054305051   -536.55712      0.054350754   -537.82113    
        83   8.3            1016.4948      9494.6671      598783.01      1.0206767      0.89071338     0.12996333     0.055137503   -536.26157      0.055184443   -537.51261    
        84   8.4            1041.5356      9257.2794      598807.78      0.99515753     0.86199264     0.1331649      0.05596421    -536.12496      0.056012394   -537.3622     
        85   8.5            1066.9629      9020.992       599003.27      0.96975664     0.83334075     0.13641589     0.056785324   -536.14005      0.056834758   -537.36289    
        86   8.6            1092.7606      8785.6717      599361.92      0.94445971     0.80474546     0.13971425     0.057601019   -536.30012      0.057651707   -537.50766    
        87   8.7            1118.9139      8551.1845      599876.96      0.91925234     0.77619428     0.14305806     0.058411487   -536.59881      0.058463435   -537.79044    
        88   8.8            1145.4092      8317.3964      600540.81      0.89412011     0.74767451     0.1464456      0.05921694    -537.02915      0.059270152   -538.20438    
        89   8.9            1172.2358      8084.1745      601346.43      0.86904875     0.71917326     0.1498755      0.060017604   -537.58474      0.060072085   -538.74297    
        90   9              1199.3857      7851.3881      602287.11      0.84402422     0.69067749     0.15334673     0.060813722   -538.25929      0.060869475   -539.40016    
        91   9.1            1226.8552      7618.9102      603356.47      0.81903285     0.66217402     0.15685883     0.061605547   -539.0469       0.061662574   -540.17009    
        92   9.2            1254.6454      7386.6182      604548         0.79406146     0.63364953     0.16041193     0.062393342   -539.94155      0.062451648   -541.04681    
        93   9.3            1282.7631      7154.3951      605855.42      0.76909748     0.60509058     0.1640069      0.063177383   -540.93735      0.063236968   -542.02451    
        94   9.4            1311.2213      6922.1308      607273.05      0.74412906     0.57648365     0.16764541     0.063957948   -542.02904      0.064018817   -543.09788    
        95   9.5            1340.04        6689.7219      608795.2       0.71914511     0.5478151      0.17133001     0.064735327   -543.21111      0.06479748    -544.26173    
        96   9.6            1369.246       6457.073       610415.96      0.69413534     0.51907123     0.17506411     0.065509809   -544.47821      0.065573248   -545.51029    
        97   9.7            1398.8725      6224.0953      612130.66      0.66909024     0.49023825     0.17885199     0.06628169    -545.82546      0.066346417   -546.83953    
        98   9.8            1428.9587      5990.7066      613933.69      0.64400096     0.4613023      0.18269866     0.067051267   -547.24772      0.067117283   -548.24393    
        99   9.9            1459.5484      5756.8294      615820.36      0.61885916     0.43224948     0.18660968     0.067818837   -548.74034      0.067886142   -549.71908    
       100   10             1490.688       5522.3891      617785.66      0.59365683     0.40306582     0.19059101     0.068584696   -550.29852      0.068653293   -551.26016    
       101   10.1           1522.4246      5287.3119      619824.82      0.56838603     0.37373736     0.19464867     0.069349142   -551.9176       0.069419029   -552.8626     
       102   10.2           1554.8039      5051.522       621933.01      0.54303862     0.3442501      0.19878852     0.070112467   -553.59302      0.070183646   -554.5217     
       103   10.3           1587.8679      4814.9394      624105.81      0.51760598     0.31459009     0.20301589     0.070874961   -555.32026      0.070947431   -556.23342    
       104   10.4           1621.6528      4577.4775      626338.48      0.49207884     0.2847434      0.20733544     0.071636909   -557.09487      0.071710672   -557.99316    
       105   10.5           1656.1876      4339.0423      628626.36      0.46644704     0.25469618     0.21175086     0.072398594   -558.91237      0.072473649   -559.79654    
       106   10.6           1691.4928      4099.5304      630964.77      0.44069952     0.22443472     0.21626479     0.07316029    -560.76834      0.073236638   -561.63915    
       107   10.7           1727.5806      3858.8299      633348.99      0.41482421     0.19394543     0.22087878     0.073922267   -562.65831      0.073999908   -563.51663    
       108   10.8           1764.4544      3616.8202      635774.23      0.38880817     0.16321492     0.22559325     0.074684787   -564.57782      0.07476372    -565.42454    
       109   10.9           1802.1097      3373.3734      638235.63      0.36263764     0.13223        0.23040764     0.075448105   -566.52236      0.075528331   -567.35845    
       110   11             1840.5349      3128.3559      640728.23      0.33629825     0.10097777     0.23532048     0.076212468   -568.48738      0.076293986   -569.31386    
       111   11.1           1879.713       2881.6296      643247         0.30977518     0.069445617    0.24032956     0.076978115   -570.46829      0.077060927   -571.28621    
       112   11.2           1919.622       2633.0545      645786.81      0.28305336     0.037621246    0.24543212     0.077745276   -572.46042      0.077829381   -573.27092    
       113   11.3           1960.2372      2382.4901      648342.43      0.25611769     0.0054927395   0.25062495     0.078514172   -574.45906      0.078599571   -575.26331    
       114   11.4           2001.5318      2129.7973      650908.55      0.22895321    -0.026951424    0.25590464     0.079285016   -576.45942      0.079371709   -577.25864    
       115   11.5           2043.4783      1874.8404      653479.78      0.20154534    -0.059722336    0.26126768     0.080058008   -578.45664      0.080145996   -579.25213    
       116   11.6           2086.0498      1617.4885      656050.64      0.17388001    -0.092830629    0.26671064     0.080833341   -580.44582      0.080922625   -581.23892    
       117   11.7           2129.2213      1357.6173      658615.6       0.14594386    -0.12628645     0.2722303      0.081611197   -582.42198      0.081701778   -583.21413    
       118   11.8           2172.9703      1095.1107      661169.08      0.11772439    -0.16009941     0.2778238      0.082391747   -584.38014      0.082483626   -585.17284    
       119   11.9           2217.278       829.86176      663705.49      0.089210139   -0.1942786      0.28348874     0.083175153   -586.31526      0.083268331   -587.11009    
       120   12             2262.1302      561.77441      666219.21      0.060390749   -0.22883254     0.28922329     0.083961563   -588.22232      0.084056043   -589.02095    
       121   12.1           2307.5176      290.76396      668704.66      0.031257125   -0.26376914     0.29502627     0.084751117   -590.0963       0.084846901   -590.9005     
       122   12.2           2353.4363      16.757965      671156.31      0.0018014813  -0.2990957      0.30089718     0.085543943   -591.93225      0.085641033   -592.74388    
       123   12.3           2399.8881     -260.30349      673568.68     -0.027982625   -0.33481886     0.30683624     0.086340159   -593.72526      0.086438557   -594.54628    
       124   12.4           2446.8796     -540.46794      675936.37     -0.058100304   -0.37094461     0.31284431     0.087139868   -595.47054      0.08723958    -596.30297    
       125   12.5           2494.422      -823.771        678254.08     -0.088555382   -0.4074782      0.31892282     0.087943167   -597.16345      0.088044195   -598.00934    
       126   12.6           2542.5299     -1110.2373      680516.65     -0.11935051    -0.44442413     0.32507363     0.088750138   -598.7995       0.088852487   -599.66089    
       127   12.7           2591.2197     -1399.8817      682719.01     -0.15048728    -0.48178611     0.33129882     0.089560853   -600.37443      0.089664528   -601.25326    
       128   12.8           2640.508      -1692.7109      684856.29     -0.18196642    -0.51956697     0.33760055     0.090375373   -601.88427      0.090480379   -602.78225    
       129   12.9           2690.4099     -1988.7248      686923.85     -0.21378791    -0.55776864     0.34398073     0.091193745   -603.32542      0.091300089   -604.24389    
       130   13             2740.9375     -2287.9184      688917.43     -0.24595123    -0.59639213     0.3504409      0.092016009   -604.69476      0.092123698   -605.63448    
       131   13.1           2792.0982     -2590.2833      690833.3      -0.27845546    -0.63543748     0.35698202     0.092842192   -605.98981      0.092951233   -606.95078    
       132   13.2           2843.8944     -2895.8089      692668.69     -0.31129945    -0.67490385     0.3636044      0.093672308   -607.20894      0.09378271    -608.19016    
       133   13.3           2896.3242     -3204.4835      694422.16     -0.34448198    -0.71478976     0.37030778     0.094506363   -608.35166      0.094618135   -609.35097    
       134   13.4           2949.383      -3516.2957      696094.32     -0.37800179    -0.75509336     0.37709158     0.095344351   -609.41888      0.095457503   -610.43299    
       135   13.5           3003.0681     -3831.2346      697688.63     -0.41185772    -0.79581318     0.38395546     0.096186257   -610.41327      0.096300798   -611.43793    
       136   13.6           3057.3854     -4149.2913      699212.16     -0.44604881    -0.83694898     0.39090017     0.097032053   -611.33951      0.097147994   -612.36996    
       137   13.7           3112.3586     -4470.4594      700676.27     -0.48057439    -0.87850311     0.39792872     0.097881706   -612.20455      0.097999056   -613.23578    
       138   13.8           3168.0396     -4794.7365      702096.45     -0.51543417    -0.92048196     0.40504779     0.098735169   -613.0175       0.098853939   -614.04405    
       139   13.9           3224.5193     -5122.125       703490.69     -0.55062844    -0.9628974      0.41226896     0.099592391   -613.78863      0.09971259    -614.80346    
       140   14             3281.9325     -5452.6327      704875.14     -0.58615802    -1.0057675      0.4196095      0.10045331    -614.52639      0.10057495    -615.51962    
       141   14.1           3340.4549     -5786.2711      706256.91     -0.62202415    -1.049116       0.42709184     0.10131786    -615.23174      0.10144094    -616.19109    
       142   14.2           3400.2858     -6123.0511      707625.06     -0.658228      -1.0929695      0.43474149     0.10218596    -615.89081      0.1023105     -616.8056     
       143   14.3           3461.621      -6462.9748      708944.28     -0.69476979    -1.1373533      0.44258346     0.10305754    -616.46922      0.10318354    -617.33881    
       144   14.4           3524.622      -6806.0255      710158.08     -0.73164774    -1.1822862      0.45063842     0.1039325     -616.91349      0.10405996    -617.75922    
       145   14.5           3589.3995     -7152.1613      711204.91     -0.76885734    -1.2277778      0.4589205      0.10481075    -617.16254      0.10493967    -618.03957    
       146   14.6           3656.023      -7501.3164      712040.08     -0.80639151    -1.2738301      0.46743861     0.10569217    -617.16636      0.10582256    -618.16779    
       147   14.7           3724.5579     -7853.4105      712650.95     -0.84424163    -1.3204427      0.4762011      0.10657665    -616.90331      0.10670852    -618.14859    
       148   14.8           3795.1203     -8208.3623      713058.75     -0.88239895    -1.3676218      0.48522281     0.10746405    -616.38833      0.10759741    -617.99557    
       149   14.9           3867.94       -8566.1016      713309.33     -0.92085592    -1.415389       0.49453312     0.10835422    -615.66768      0.1084891     -617.72147    
       150   15             3943.4266     -8926.5771      713457.73     -0.95960704    -1.4637915      0.50418442     0.10924701    -614.80132      0.10938346    -617.33238    
       151   15.1           4022.2381     -9289.7622      713546.08     -0.99864944    -1.5129103      0.51426082     0.11014227    -613.83895      0.11028034    -616.81946    
       152   15.2           4105.3156     -9655.6592      713562.8      -1.0379834     -1.562866       0.52488264     0.11103982    -612.7968       0.11117958    -616.12418    
       153   15.3           4193.7475     -10024.302      713358.92     -1.0776125     -1.6138015      0.53618905     0.1119395     -611.63348      0.11208103    -615.04737    
       154   15.4           4288.1556     -10395.713      712538.65     -1.1175391     -1.6657987      0.54825953     0.11284114    -610.2131       0.11298452    -613.14705    
       155   15.5           4387.5519     -10769.681      710548.2      -1.1577407     -1.7187085      0.5609678      0.11374454    -608.28447      0.11388985    -609.92211    
       156   15.6           4488.9258     -11145.545      707185.91     -1.1981461     -1.772075       0.57392889     0.11464952    -605.58637      0.11479677    -605.448      
       157   15.7           4588.8775     -11522.635      702882.38     -1.2386833     -1.8253915      0.58670816     0.11555585    -602.09436      0.115705      -600.46471    
       158   15.8           4685.6429     -11900.675      698297.72     -1.2793226     -1.8784026      0.59908004     0.11646329    -598.15488      0.11661424    -595.60011    
       159   15.9           4779.3752     -12279.699      693865.32     -1.3200677     -1.9311318      0.61106413     0.11737156    -594.16695      0.1175242     -591.04345    
       160   16             4870.978      -12659.85       689560.64     -1.3609338     -1.9837098      0.62277594     0.11828042    -590.09102      0.1184346     -586.7596     
       161   16.1           4960.7045     -13041.055      685139.9      -1.4019134     -2.0361613      0.63424787     0.11918961    -585.60037      0.11934518    -582.71465    
       162   16.2           5048.0174     -13422.995      680654.05     -1.442972      -2.0883832      0.64541122     0.12009886    -580.78002      0.12025569    -578.88686    
       163   16.3           5132.8229     -13805.542      676368.89     -1.4840958     -2.1403498      0.65625397     0.1210079     -576.07847      0.12116591    -575.18136    
       164   16.4           5216.0316     -14188.794      672344.33     -1.5252953     -2.1921879      0.66689257     0.12191647    -571.7124       0.1220756     -571.45459    
       165   16.5           5298.7775     -14572.815      668413.44     -1.5665777     -2.2440496      0.67747199     0.12282433    -567.58235      0.12298455    -567.57932    
       166   16.6           5381.6596     -14957.544      664377.42     -1.6079359     -2.2960048      0.68806884     0.12373125    -563.47875      0.12389254    -563.50224    
       167   16.7           5464.7244     -15342.838      660175.62     -1.6493551     -2.3480441      0.69868904     0.12463701    -559.32214      0.12479935    -559.22869    
       168   16.8           5547.8416     -15728.593      655882.51     -1.6908238     -2.4001397      0.70931593     0.1255414     -555.18347      0.12570476    -554.7944     
       169   16.9           5630.9939     -16114.759      651617.12     -1.7323366     -2.4522839      0.71994731     0.12644421    -551.14107      0.12660856    -550.28525    
       170   17             5714.4187     -16501.345      647461.8      -1.7738946     -2.5045081      0.73061355     0.12734524    -547.20074      0.12751053    -545.80378    
       171   17.1           5798.5631     -16888.411      643390.18     -1.8155042     -2.556876       0.74137177     0.12824432    -543.28253      0.12841048    -541.38214    
       172   17.2           5883.7964     -17276          639268.51     -1.85717       -2.6094392      0.75226923     0.12914127    -539.23684      0.12930822    -536.97346    
       173   17.3           5970.1056     -17664.08       634935.7      -1.8988886     -2.6621928      0.76330424     0.13003592    -534.88789      0.13020355    -532.52774    
       174   17.4           6057.0007     -18052.549      630296.59     -1.940649      -2.7150632      0.77441416     0.13092808    -530.12553      0.13109631    -528.03958    
       175   17.5           6143.6882     -18441.263      625401.21     -1.9824357     -2.7679333      0.78549754     0.13181759    -525.0112       0.13198632    -523.55433    
       176   17.6           6229.4866     -18830.119      620425.1      -2.0242377     -2.820705       0.79646724     0.13270425    -519.7432       0.13287342    -519.15249    
       177   17.7           6314.1431     -19219.136      615495.1      -2.0660571     -2.873348       0.80729095     0.13358789    -514.48032      0.13375747    -514.85439    
       178   17.8           6397.6048     -19608.379      610572.33     -2.1079008     -2.9258627      0.81796189     0.13446833    -509.26968      0.13463833    -510.53072    
       179   17.9           6479.4666     -19997.818      605566.77     -2.1497654     -2.9781937      0.82842828     0.1353454     -504.15051      0.13551586    -506.00104    
       180   18             6558.9065     -20387.311      600550.52     -2.1916359     -3.030221       0.83858502     0.13621896    -499.24722      0.13638994    -501.28098    
       181   18.1           6635.3124     -20776.803      595729.92     -2.2335063     -3.0818601      0.84835385     0.13708888    -494.68635      0.13726043    -496.59653    
       182   18.2           6708.7212     -21166.388      591211.74     -2.2753867     -3.1331262      0.85773949     0.13795503    -490.45679      0.13812723    -492.13598    
       183   18.3           6779.6284     -21556.127      587028.05     -2.3172837     -3.184089       0.86680529     0.13881733    -486.47949      0.13899021    -488.00237    
       184   18.4           6848.3696     -21947.367      582963.7      -2.359342      -3.2349362      0.87559416     0.1396757     -482.56493      0.13984931    -484.0787     
       185   18.5           6912.4786     -22334.896      575888.44     -2.4010013     -3.284792       0.88379077     0.14053006    -476.75477      0.14070445    -477.94487    
       186   18.6           6972.5041     -22724.176      572226.51     -2.4428489     -3.3343142      0.89146529     0.1413803     -473.02         0.14155548    -474.38533    
       187   18.7           7004.5988     -23134.426      554332.98     -2.4869508     -3.3825195      0.89556874     0.14222636    -469.27251      0.14240237    -456.06258    
       188   18.8           7063.9257     -23436.802      523107.34     -2.5194562     -3.4226102      0.90315395     0.14306819    -475.31257      0.14324453    -418.28774    
       189   18.9           7254.7917     -23726.376      554154.31     -2.5505854     -3.4781424      0.927557       0.14390614    -456.85425      0.14408067    -460.74511    
       190   19             7210.6219     -24121.492      538924.1      -2.5930604     -3.5149701      0.9219097      0.1447396     -464.13029      0.14491253    -462.48078    
       191   19.1           7218.7095     -24432.439      524087.41     -2.6264872     -3.5494309      0.92294374     0.14556897    -455.35529      0.14574027    -441.92298    
       192   19.2           7299.0126     -24763.853      534796.13     -2.6621142     -3.5953251      0.93321084     0.14639404    -441.19546      0.14656326    -445.99739    
       193   19.3           7303.9439     -25063.385      532026.13     -2.6943139     -3.6281553      0.93384134     0.1472144     -446.60405      0.14738177    -445.90695    
       194   19.4           7302.8671     -25406.68       537088.76     -2.7312181     -3.6649217      0.93370365     0.14803039    -472.86007      0.14819593    -481.4844     
       195   19.5           7400.9718     -25750.135      520378.98     -2.7681395     -3.7143863      0.94624677     0.14884313    -429.75735      0.14900722    -435.04603    
       196   19.6           7381.4014     -26070.928      539190.76     -2.8026248     -3.7463694      0.94374461     0.14965111    -521.92417      0.14981398    -441.6436     
       197   19.7           7491.8104     -26317.347      502450.5      -2.8291148     -3.7869757      0.95786089     0.15045795    -430.04768      0.1506166     -434.68122    
       198   19.8           7495.5643     -26599.242      505204.92     -2.8594185     -3.8177594      0.95834085     0.15126024    -492.09638      0.15141497    -433.70099    
       199   19.9           7700.2869     -26894.457      494174.11     -2.8911542     -3.8756697      0.98451553     0.15206049    -398.30511      0.15220918    -414.09853    
       200   20             7692.1321     -27273.103      481126.28     -2.9318586     -3.9153315      0.9834729      0.15285523    -394.67946      0.15299862    -402.81821    
       201   20.1           7643.536      -27652.444      487531.2      -2.9726377     -3.9498974      0.97725967     0.15364449    -406.79521      0.15378304    -409.59815    
       202   20.2           7603.3003     -28039.207      471517.48     -3.0142147     -3.9863301      0.97211536     0.15442892    -387.48208      0.15456285    -399.19965    
       203   20.3           7555.9923     -28385.032      464613.4      -3.051391      -4.0174578      0.96606682     0.15520794    -373.97429      0.15533783    -446.62573    
       204   20.4           7572.997      -28706.092      451177.63     -3.0859049     -4.0541458      0.96824095     0.15598122    -371.94472      0.15610994    -378.81319    
       205   20.5           7515.1427     -29066.618      438444.84     -3.1246614     -4.0855054      0.96084402     0.15674888    -362.64454      0.15687673    -369.264      
       206   20.6           7451.3014     -29424.469      436575.29     -3.1631304     -4.115812       0.95268163     0.15751074    -360.98732      0.157638      -367.39361    
       207   20.7           7366.4582     -29786.74       435839.53     -3.2020746     -4.1439086      0.94183406     0.15826694    -356.70277      0.15839388    -386.2153     
       208   20.8           7290.7047     -30142.884      434642.45     -3.24036       -4.1725086      0.93214864     0.15901752    -382.97156      0.15914527    -361.86619    
       209   20.9           7230.7349     -30495.168      420509.43     -3.2782305     -4.2027118      0.92448123     0.15976369    -355.21714      0.15989142    -352.52052    
       210   21             7140.635      -30824.76       441294.85     -3.3136617     -4.2266233      0.91296156     0.16050453    -397.54311      0.16063215    -366.80982    
       211   21.1           7094.4141     -31162.076      415902.95     -3.3499232     -4.2569752      0.90705202     0.1612419     -356.9385       0.16136821    -350.08835    
       212   21.2           7019.0401     -31501.476      405057.82     -3.3864087     -4.2838238      0.89741513     0.16197436    -343.12913      0.16209913    -345.13505    
       213   21.3           6929.9149     -31830.181      392244.32     -3.4217444     -4.3077645      0.88602007     0.16270155    -340.38931      0.1628249     -332.34908    
       214   21.4           6840.9885     -32153.196      387562.25     -3.4564686     -4.3311191      0.87465045     0.16342358    -338.58897      0.16354523    -326.68784    
       215   21.5           6756.9882     -32470.277      391265.68     -3.4905548     -4.3544654      0.86391064     0.16414055    -342.19043      0.16426008    -334.3785     
       216   21.6           6675.9721     -32789.983      382906.61     -3.5249232     -4.3784756      0.85355238     0.16485281    -325.87313      0.16496997    -327.39633    
       217   21.7           6586.9858     -33097.626      377852.84     -3.5579948     -4.4001699      0.84217509     0.16555989    -319.67747      0.1656748     -323.10166    
       218   21.8           6476.41       -33404.537      375846.3      -3.5909878     -4.4190252      0.82803748     0.16626176    -304.74642      0.1663746     -348.43898    
       219   21.9           6381.3065     -33707.57       357987.46     -3.6235638     -4.4394419      0.81587809     0.166958      -292.37539      0.16707056    -330.46114    
       220   22             6297.2045     -33992.155      341518.76     -3.6541567     -4.4592819      0.80512528     0.16764836    -292.41255      0.16776213    -294.57382    
       221   22.1           6205.721      -34270.752      344467.58     -3.6841059     -4.4775346      0.7934287      0.16833302    -292.36158      0.16844808    -293.9014     
       222   22.2           6167.5993     -34546.844      321599.99     -3.7137857     -4.5023404      0.78855468     0.16901221    -279.95111      0.16912858    -267.48814    
       223   22.3           6143.7893     -34811.928      332981.99     -3.7422822     -4.5277927      0.78551046     0.16968563    -288.876        0.16980279    -280.79767    
       224   22.4           6058.2443     -35080.841      325203.89     -3.7711905     -4.5457636      0.77457317     0.17035385    -280.04467      0.17047145    -280.3843     
       225   22.5           5974.9174     -35332.58       311042.47     -3.7982524     -4.5621718      0.76391945     0.1710167     -276.54211      0.17113475    -261.34662    
       226   22.6           5939.4922     -35617.447      324172.34     -3.8288755     -4.5882657      0.75939019     0.17167426    -269.16765      0.17179214    -285.42141    
       227   22.7           5899.1246     -35866.732      324334.19     -3.8556737     -4.6099027      0.75422901     0.17232642    -275.98847      0.17244479    -281.70116    
       228   22.8           5836.5364     -36126.471      324272.49     -3.8835956     -4.6298225      0.74622683     0.17297365    -275.91641      0.17309273    -279.37894    
       229   22.9           5775.483      -36382.113      319286.76     -3.9110772     -4.649498       0.73842089     0.17361614    -275.47444      0.17373605    -274.33022    
       230   23             5711.1994     -36634.904      316086.44     -3.9382521     -4.6684541      0.73020194     0.17425405    -274.28141      0.17437473    -271.10717    
       231   23.1           5634.3914     -36880.86       329018.33     -3.9646924     -4.6850741      0.7203817      0.17488752    -300.90222      0.17500882    -281.10649    
       232   23.2           5586.8533     -37130.06       306095.37     -3.9914814     -4.7057852      0.71430375     0.1755178     -262.40526      0.1756389     -271.84956    
       233   23.3           5521.3852     -37366.887      291620.15     -4.0169403     -4.7228737      0.70593337     0.17614347    -250.02844      0.17626477    -266.00384    
       234   23.4           5461.4457     -37601.513      291376.29     -4.0421626     -4.7404325      0.69826984     0.17676421    -253.99974      0.17688635    -252.65589    
       235   23.5           5400.5256     -37834.714      292842.74     -4.0672318     -4.7577127      0.69048093     0.17738036    -253.23067      0.17750327    -255.40002    
       236   23.6           5341.512      -38064.092      285887.54     -4.0918899     -4.7748257      0.68293579     0.17799207    -246.02025      0.17811581    -260.75506    
       237   23.7           5286.9534     -38290.027      269968.52     -4.1161779     -4.7921381      0.67596023     0.17859922    -238.36096      0.17872438    -237.81666    
       238   23.8           5223.0289     -38507.458      261015.81     -4.1395517     -4.8073389      0.6677872      0.17920165    -231.71209      0.17932818    -231.24733    
       239   23.9           5162.8456     -38719.28       259164.41     -4.1623226     -4.8224151      0.66009251     0.17979929    -236.35097      0.17992712    -223.15917    
       240   24             5112.3225     -38936.567      258378.26     -4.1856809     -4.8393138      0.65363289     0.18039248    -236.75885      0.18052106    -222.41456    
       241   24.1           5049.3324     -39147.4        252320.07     -4.2083455     -4.8539248      0.64557934     0.18098141    -232.82633      0.18111013    -228.96145    
       242   24.2           4965.3481     -39324.482      257183.23     -4.2273818     -4.8622234      0.63484157     0.18156608    -201.30205      0.18169479    -277.50375    
       243   24.3           4929.1353     -39547.136      234572.32     -4.2513171     -4.8815287      0.63021162     0.18214537    -214.77         0.18227718    -215.30467    
       244   24.4           4853.5258     -39735.705      233313.91     -4.2715882     -4.8921328      0.62054461     0.18271999    -244.48408      0.18285487    -193.65709    
       245   24.5           4825.4292     -39923.868      226009.99     -4.2918158     -4.9087681      0.61695233     0.18329135    -207.4605       0.18342713    -208.18603    
       246   24.6           4766.3002     -40112.864      222176.96     -4.3121329     -4.9215253      0.60939243     0.18385805    -203.1923       0.18399474    -204.95501    
       247   24.7           4703.2535     -40300.601      219863.24     -4.3323146     -4.9336462      0.60133163     0.18442008    -201.22559      0.18455773    -204.99705    
       248   24.8           4637.4046     -40484.234      221901.13     -4.3520551     -4.9449677      0.59291257     0.18497752    -201.88236      0.18511627    -210.02495    
       249   24.9           4573.7742     -40667.616      220458.06     -4.3717687     -4.9565458      0.58477714     0.18553056    -201.49813      0.18567073    -208.74832    
       250   25             4514.1122     -40847.125      215115.77     -4.3910659     -4.968215       0.57714909     0.18607933    -199.60355      0.18622119    -201.3188     
       251   25.1           4453.913      -41022.803      206651.19     -4.4099513     -4.9794036      0.56945235     0.18662392    -194.34434      0.1867675     -193.48281    
       252   25.2           4375.1411     -41204.917      198698.74     -4.4295285     -4.9889096      0.55938102     0.18716425    -170.8415       0.18730947    -202.56218    
       253   25.3           4315.6405     -41351.898      195566.17     -4.445329      -4.9971026      0.5517736      0.18769949    -146.94542      0.18784764    -218.40578    
       254   25.4           4309.9297     -41497.261      202635.62     -4.4609556     -5.0119991      0.55104345     0.18822881    -189.70605      0.18838281    -189.34524    
       255   25.5           4273.4786     -41658.689      206490.33     -4.478309      -5.024692       0.54638302     0.18875418    -187.58726      0.18891387    -193.38998    
       256   25.6           4243.8555     -41822.074      199278.64     -4.4958729     -5.0384685      0.54259558     0.18927564    -192.56518      0.18944116    -181.53874    
       257   25.7           4199.5489     -41982.336      207696.98     -4.5131011     -5.0500319      0.53693078     0.18979355    -208.32643      0.1899643     -180.95548    
       258   25.8           4164.0579     -42145.733      208454.44     -4.5306663     -5.0630594      0.5323931      0.19030869    -211.3832       0.19048341    -182.06544    
       259   25.9           4130.3799     -42305.461      192857.54     -4.5478371     -5.0759243      0.52808722     0.1908213     -190.73455      0.19099868    -175.31062    
       260   26             4089.9595     -42458.905      192435.37     -4.5643323     -5.0872516      0.5229193      0.19133062    -188.33063      0.19150996    -174.13133    
       261   26.1           4050.254      -42613.72       189948.62     -4.5809749     -5.0988177      0.51784278     0.19183667    -184.04938      0.19201732    -174.4375     
       262   26.2           4006.0023     -42762.892      181474.54     -4.5970109     -5.1091959      0.512185       0.19233939    -173.39737      0.19252093    -173.69896    
       263   26.3           3959.5328     -42909.289      179659.54     -4.6127485     -5.1189922      0.50624368     0.19283845    -170.2491       0.19302086    -173.88895    
       264   26.4           3918.969      -43055.023      179037.86     -4.6284149     -5.1294723      0.50105741     0.19333384    -171.84946      0.19351727    -171.2923     
       265   26.5           3883.4324     -43198.88       174978.88     -4.6438796     -5.1403935      0.4965139      0.19382575    -171.76675      0.19401015    -165.59438    
       266   26.6           3851.4098     -43339.869      174091.48     -4.659036      -5.1514556      0.49241968     0.19431431    -173.03293      0.19449939    -162.29899    
       267   26.7           3825.4932     -43480.142      175145.52     -4.6741153     -5.1632214      0.48910612     0.19479967    -175.61678      0.19498497    -160.34224    
       268   26.8           3804.1967     -43620.002      172596.59     -4.6891502     -5.1755335      0.48638327     0.19528206    -171.6948       0.19546693    -160.12924    
       269   26.9           3782.4599     -43756.3        172401.99     -4.7038022     -5.1874063      0.48360412     0.19576142    -168.55375      0.19594538    -162.2239     
       270   27             3762.4015     -43893.782      170663.3      -4.7185816     -5.1996212      0.48103956     0.19623772    -165.48951      0.19642052    -162.35782    
       271   27.1           3739.7042     -44027.895      162455.85     -4.7329987     -5.2111364      0.47813762     0.19671095    -161.65411      0.19689248    -155.19806    
       272   27.2           3711.8548     -44159.412      163088.62     -4.7471367     -5.2217137      0.47457695     0.19718104    -162.7815       0.19736104    -155.02901    
       273   27.3           3686.3903     -44291.106      164769.28     -4.7612939     -5.2326151      0.4713212      0.19764814    -164.20528      0.19782633    -155.84237    
       274   27.4           3663.7907     -44421.99       162101.52     -4.7753639     -5.2437956      0.46843174     0.19811243    -162.58386      0.19828848    -153.53115    
       275   27.5           3643.8664     -44550.57       160347.82     -4.7891863     -5.2550706      0.46588433     0.19857392    -161.86164      0.1987475     -151.3186     
       276   27.6           3628.5681     -44678.505      158530.76     -4.8029393     -5.2668677      0.46392838     0.19903269    -162.65878      0.19920339    -147.81106    
       277   27.7           3619.059      -44806.521      155649.01     -4.8167011     -5.2794137      0.4627126      0.19948887    -163.1605       0.19965611    -143.79134    
       278   27.8           3608.8988     -44933.023      149592.47     -4.8302999     -5.2917135      0.46141358     0.19994256    -155.96487      0.20010558    -143.42202    
       279   27.9           3591.9459     -45056.194      145142.91     -4.8435408     -5.3027869      0.45924607     0.20039356    -152.6109       0.20055191    -140.96852    
       280   28             3573.1172     -45178.335      142327.04     -4.856671      -5.3135097      0.45683874     0.2008418     -151.75583      0.20099507    -137.53748    
       281   28.1           3556.533      -45299.524      141012.15     -4.8696988     -5.3244172      0.45471837     0.20128734    -152.42682      0.20143503    -133.93294    
       282   28.2           3544.1034     -45419.869      139235.57     -4.8826359     -5.3357651      0.45312919     0.20173031    -153.34598      0.20187172    -128.97721    
       283   28.3           3534.5397     -45539.792      137090.11     -4.8955277     -5.3474341      0.45190644     0.20217082    -151.84809      0.20230504    -126.50671    
       284   28.4           3522.7787     -45658.127      135623.97     -4.9082486     -5.3586514      0.45040274     0.20260891    -148.78663      0.20273498    -127.08196    
       285   28.5           3505.7752     -45774.789      135093.88     -4.9207898     -5.3690186      0.44822876     0.20304452    -146.46324      0.20316166    -128.24258    
       286   28.6           3485.8752     -45890.91       135759.39     -4.9332728     -5.3789573      0.44568446     0.20347763    -145.5813       0.20358524    -129.44823    
       287   28.7           3465.9078     -46006.937      136826.24     -4.9457458     -5.3888773      0.44313155     0.20390829    -145.12507      0.20400586    -130.392      
       288   28.8           3444.5025     -46122.358      135728.4      -4.9581534     -5.3985482      0.44039479     0.20433657    -144.44038      0.20442365    -127.87618    
       289   28.9           3422.5827     -46235.67       135982.28     -4.9703345     -5.4079267      0.43759224     0.20476251    -144.8423       0.20483859    -126.34876    
       290   29             3406.2206     -46348.536      138124.27     -4.9824676     -5.4179679      0.43550028     0.20518622    -146.6702       0.20525071    -126.26751    
       291   29.1           3400.0135     -46460.97       139758.63     -4.9945543     -5.4292609      0.43470667     0.20560784    -150.13623      0.20566008    -123.40203    
       292   29.2           3403.249      -46575.172      146624.03     -5.006831      -5.4419514      0.43512035     0.2060276     -155.36701      0.20606667    -126.20839    
       293   29.3           3407.6472     -46691.051      151074.34     -5.019288      -5.4549707      0.43568267     0.2064458     -156.52         0.20647068    -131.25922    
       294   29.4           3403.2467     -46803.59       151957.73     -5.031386      -5.466506       0.43512005     0.20686255    -151.9162       0.20687241    -139.27705    
       295   29.5           3389.0842     -46916.667      153660.99     -5.0435417     -5.476851       0.43330932     0.20727772    -153.37771      0.20727229    -140.21578    
       296   29.6           3371.5912     -47031.215      151372.9      -5.0558557     -5.4869284      0.43107276     0.20769141    -150.35799      0.20767043    -138.86988    
       297   29.7           3354.9918     -47141.806      150833.09     -5.0677441     -5.4966946      0.42895044     0.20810358    -148.99164      0.20806683    -138.04613    
       298   29.8           3345.1958     -47257.063      153527.29     -5.0801342     -5.5078322      0.42769799     0.2085142     -149.39643      0.20846151    -140.21436    
       299   29.9           3337.2691     -47368.968      156487.17     -5.0921641     -5.5188486      0.42668453     0.20892336    -149.18023      0.20885463    -143.81857    
       300   30             3326.4091     -47480.711      158970.59     -5.1041765     -5.5294725      0.42529603     0.20933111    -149.68486      0.20924641    -146.12465    
       301   30.1           3315.3348     -47592.339      161992.63     -5.1161765     -5.5400566      0.42388012     0.20973752    -151.186        0.20963701    -148.04361    
       302   30.2           3310.0381     -47702.493      168477.36     -5.128018      -5.5512209      0.42320292     0.21014272    -153.03726      0.21002655    -151.79239    
       303   30.3           3313.2105     -47822.047      162948.87     -5.1408701     -5.5644786      0.42360853     0.21054683    -149.73556      0.21041525    -147.27901    
       304   30.4           3310.0322     -47929.789      154848.36     -5.1524523     -5.5756544      0.42320216     0.21094977    -145.59024      0.21080295    -141.16996    
       305   30.5           3296.1579     -48039.267      154313.77     -5.1642212     -5.5856495      0.42142828     0.21135139    -146.3957       0.21118943    -139.21847    
       306   30.6           3278.9343     -48147.883      154049.51     -5.1758974     -5.5951236      0.41922616     0.21175178    -146.5711       0.21157466    -137.67345    
       307   30.7           3262.5735     -48256.239      150951.16     -5.1875457     -5.6046801      0.41713436     0.212151      -144.52318      0.2119586     -135.27274    
       308   30.8           3248.1649     -48363.56       145173.48     -5.1990827     -5.6143749      0.41529216     0.21254901    -140.5108       0.2123412     -131.84729    
       309   30.9           3234.2837     -48469.172      140616.52     -5.210436      -5.6239534      0.41351739     0.21294568    -137.23789      0.21272237    -129.4216     
       310   31             3220.5104     -48574.245      139495.46     -5.2217314     -5.6334878      0.41175641     0.21334091    -136.55521      0.21310203    -129.25814    
       311   31.1           3205.4416     -48679          140016.13     -5.2329925     -5.6428223      0.40982979     0.21373472    -137.85962      0.21348025    -129.44025    
       312   31.2           3187.977      -48782.819      143062.41     -5.244153      -5.6517499      0.40759687     0.21412722    -141.14098      0.21385707    -130.96441    
       313   31.3           3169.6171     -48887.557      147768.25     -5.2554124     -5.6606618      0.40524947     0.21451861    -142.7064       0.21423261    -136.23066    
       314   31.4           3150.7723     -48991.489      147862.75     -5.2665851     -5.6694252      0.40284008     0.21490899    -139.92036      0.21460715    -139.24675    
       315   31.5           3133.818      -49095.255      147069.18     -5.2777399     -5.6784123      0.4006724      0.2152983     -138.41757      0.21498087    -139.27002    
       316   31.6           3120.622      -49198.049      144607.57     -5.2887903     -5.6877755      0.39898524     0.2156865     -137.2268       0.21535381    -136.59014    
       317   31.7           3109.8895     -49299.98       142298.26     -5.2997478     -5.6973609      0.39761304     0.21607358    -135.837        0.21572589    -134.2231     
       318   31.8           3100.9631     -49401.001      139150.36     -5.3106076     -5.7070793      0.39647176     0.21645952    -133.79482      0.21609703    -131.37735    
       319   31.9           3093.2507     -49501.039      136168.36     -5.3213617     -5.7168474      0.3954857      0.21684428    -131.68972      0.21646714    -128.7637     
       320   32             3086.5352     -49600.405      133842        -5.3320436     -5.7266707      0.39462709     0.21722781    -130.20574      0.21683616    -126.55146    
       321   32.1           3080.8472     -49699.194      132268.64     -5.3426634     -5.7365633      0.39389985     0.21761008    -129.53374      0.21720401    -124.79233    
       322   32.2           3075.8985     -49797.426      131384.77     -5.3532233     -5.7464904      0.39326714     0.2179911     -129.46763      0.21757067    -123.54732    
       323   32.3           3070.9514     -49895.338      130530.84     -5.3637488     -5.7563834      0.39263464     0.21837092    -129.37492      0.21793612    -122.54031    
       324   32.4           3064.7873     -49993.055      130098.39     -5.3742534     -5.7661         0.39184652     0.21874957    -129.27733      0.21830035    -121.98493    
       325   32.5           3059.7733     -50089.01       132244.83     -5.3845686     -5.7757741      0.39120546     0.21912709    -127.9049       0.21866338    -123.78206    
       326   32.6           3052.465      -50187.476      131916.65     -5.3951537     -5.7854247      0.39027107     0.21950347    -131.18658      0.21902534    -122.53632    
       327   32.7           3038.7358     -50283.683      133185.53     -5.4054959     -5.7940116      0.38851572     0.21987888    -133.27878      0.2193862     -122.77157    
       328   32.8           3025.4151     -50380.948      133181.92     -5.4159519     -5.8027645      0.38681262     0.22025346    -134.3332       0.21974601    -122.17047    
       329   32.9           3012.2544     -50477.539      130584.15     -5.4263354     -5.8114654      0.38512997     0.2206273     -133.82906      0.22010479    -119.44812    
       330   33             2997.2474     -50573.051      127186.47     -5.436603      -5.8198142      0.38321125     0.2210004     -134.25761      0.22046245    -114.91052    
       331   33.1           2981.9585     -50667.252      123908.8      -5.4467296     -5.8279861      0.3812565      0.22137281    -135.50823      0.22081882    -109.92979    
       332   33.2           2972.3937     -50761.708      122075.31     -5.4568837     -5.8369173      0.38003359     0.22174463    -133.42385      0.22117372    -109.64457    
       333   33.3           2966.3398     -50854.928      118855.39     -5.4669048     -5.8461643      0.37925958     0.22211578    -127.96748      0.22152717    -109.87999    
       334   33.4           2960.9642     -50946.688      114833.98     -5.476769      -5.8553413      0.37857229     0.22248606    -120.34909      0.22187924    -109.61169    
       335   33.5           2955.4313     -51038.458      112300.65     -5.4866342     -5.8644991      0.37786488     0.22285515    -114.94362      0.22222994    -109.43198    
       336   33.6           2945.325      -51129.205      109862.91     -5.4963895     -5.8729622      0.37657274     0.22322283    -113.54357      0.22257932    -106.94067    
       337   33.7           2927.9421     -51217.948      109266.29     -5.5059295     -5.8802797      0.37435026     0.2235891     -113.61375      0.2229273     -106.24805    
       338   33.8           2909.4742     -51306.563      109806.16     -5.5154555     -5.8874446      0.37198906     0.22395399    -114.33273      0.22327388    -105.89297    
       339   33.9           2893.739      -51394.835      109360.65     -5.5249447     -5.894922       0.36997725     0.22431758    -114.46434      0.2236191     -104.74028    
       340   34             2881.8285     -51482.763      109139.72     -5.534397      -5.9028515      0.36845444     0.22467992    -114.70629      0.22396294    -104.03339    
       341   34.1           2874.2756     -51570.035      111566.2      -5.5437787     -5.9112675      0.36748876     0.22504105    -116.83233      0.22430541    -104.70745    
       342   34.2           2871.4227     -51658.543      113373.61     -5.5532934     -5.9204174      0.36712401     0.22540111    -118.4144       0.22464658    -105.42532    
       343   34.3           2871.4178     -51745.703      113375.92     -5.562663      -5.9297864      0.36712339     0.22576022    -119.07477      0.22498652    -105.22315    
       344   34.4           2871.5151     -51833.947      114432.85     -5.5721494     -5.9392852      0.36713582     0.22611843    -118.86958      0.22532526    -106.51229    
       345   34.5           2867.3366     -51922.052      114591.9      -5.5816206     -5.9482222      0.36660159     0.22647576    -117.27523      0.22566289    -107.74016    
       346   34.6           2857.6088     -52008.005      112312.39     -5.5908606     -5.9562184      0.36535784     0.22683218    -115.14818      0.22599951    -106.37637    
       347   34.7           2847.9164     -52094.264      111315.12     -5.6001334     -5.964252       0.36411863     0.22718762    -115.03045      0.22633509    -105.09597    
       348   34.8           2841.518      -52180.644      112618.06     -5.6094192     -5.9727198      0.36330056     0.22754211    -116.37371      0.2266696     -105.42509    
       349   34.9           2838.3324     -52267.23       117255.6      -5.6187272     -5.9816204      0.36289327     0.22789574    -118.26831      0.22700309    -109.9689     
       350   35             2836.1914     -52354.451      122562.76     -5.6281034     -5.990723       0.36261954     0.22824863    -120.36943      0.22733579    -115.45858    
       351   35.1           2834.0317     -52442.153      128266.29     -5.6375314     -5.9998748      0.36234341     0.2286009     -122.73772      0.22766801    -121.27331    
       352   35.2           2831.2639     -52530.356      130908.7      -5.6470133     -6.0090028      0.36198953     0.2289527     -124.19204      0.22800001    -123.31561    
       353   35.3           2827.3004     -52618.629      131196.42     -5.6565026     -6.0179854      0.36148278     0.22930411    -124.08304      0.22833193    -123.23734    
       354   35.4           2822.5781     -52707.013      130792.31     -5.6660039     -6.0268829      0.36087902     0.22965516    -123.60387      0.22866377    -122.61292    
       355   35.5           2817.3224     -52794.874      130814.35     -5.6754489     -6.035656       0.36020705     0.23000583    -123.7669       0.22899551    -122.08498    
       356   35.6           2812.2532     -52882.535      132714.21     -5.6848725     -6.0444315      0.35955893     0.23035616    -125.3798       0.22932716    -122.80694    
       357   35.7           2809.2148     -52970.975      136922.77     -5.6943798     -6.0535503      0.35917046     0.23070625    -129.07471      0.22965875    -124.75855    
       358   35.8           2805.6883     -53059.392      136538.04     -5.7038847     -6.0626043      0.35871958     0.23105629    -126.86284      0.22999041    -125.37933    
       359   35.9           2798.8163     -53147.125      136544.97     -5.7133159     -6.0711569      0.35784097     0.23140618    -126.94347      0.23032215    -124.69355    
       360   36             2792.5199     -53235.141      137092.64     -5.7227777     -6.0798136      0.35703594     0.23175596    -128.16504      0.23065398    -123.62782    
       361   36.1           2787.104      -53323.088      137496        -5.7322319     -6.0885754      0.3563435      0.23210569    -129.19516      0.23098585    -122.38919    
       362   36.2           2780.717      -53411.071      136806.11     -5.7416902     -6.0972171      0.35552689     0.23245543    -128.88349      0.23131772    -120.86119    
       363   36.3           2770.5001     -53498.369      136201.54     -5.7510746     -6.1052953      0.35422062     0.2328052     -127.77828      0.23164952    -120.52206    
       364   36.4           2755.5045     -53584.503      135915.87     -5.760334      -6.1126374      0.35230336     0.23315494    -126.89195      0.23198127    -120.59134    
       365   36.5           2738.2333     -53670.553      135820.29     -5.7695844     -6.1196796      0.35009516     0.23350464    -126.45898      0.23231297    -120.43827    
       366   36.6           2721.0373     -53756.667      135636.27     -5.7788417     -6.1267383      0.34789658     0.23385428    -126.2424       0.23264463    -120.02626    
       367   36.7           2703.8464     -53842.007      134717.82     -5.7880158     -6.1337144      0.34569865     0.23420387    -125.6476       0.23297625    -118.94641    
       368   36.8           2686.2678     -53926.653      134317.69     -5.7971152     -6.1405664      0.34345115     0.2345534     -125.34358      0.23330779    -118.39711    
       369   36.9           2668.9632     -54010.671      134893.14     -5.8061472     -6.1473858      0.34123867     0.23490287    -126.02777      0.23363923    -118.52373    
       370   37             2652.6168     -54094.614      135241.78     -5.815171      -6.1543197      0.33914872     0.23525233    -126.5702       0.2339706     -118.07851    
       371   37.1           2636.4599     -54178.087      134602.98     -5.8241443     -6.1612273      0.33708298     0.2356018     -127.13491      0.2343019     -115.32863    
       372   37.2           2620.9016     -54260.091      133885.14     -5.8329598     -6.1680536      0.33509379     0.23595134    -127.78432      0.23463299    -112.24935    
       373   37.3           2609.9287     -54342.511      135242.76     -5.8418199     -6.1755108      0.33369086     0.23630098    -127.80835      0.23496376    -113.32421    
       374   37.4           2602.1669     -54425.077      139118.07     -5.8506958     -6.1833943      0.33269848     0.23665074    -128.09445      0.23529428    -118.21471    
       375   37.5           2593.4756     -54507.348      141639.37     -5.8595399     -6.1911272      0.33158725     0.23700064    -128.31539      0.23562478    -121.44157    
       376   37.6           2584.0675     -54589.468      141963.35     -5.8683678     -6.1987521      0.33038439     0.23735071    -127.9672       0.23595544    -122.21363    
       377   37.7           2575.0831     -54671.401      141644.24     -5.8771756     -6.2064113      0.32923569     0.23770092    -127.3417       0.23628629    -122.39882    
       378   37.8           2567.3371     -54752.99       140589.26     -5.8859464     -6.2141918      0.32824534     0.23805128    -126.36619      0.23661736    -121.82339    
       379   37.9           2560.9222     -54834.323      138968.02     -5.8946898     -6.2221149      0.32742515     0.23840173    -124.88719      0.23694863    -120.82209    
       380   38             2555.2515     -54915.156      137135.06     -5.9033793     -6.2300794      0.32670014     0.23875222    -123.15022      0.23728005    -119.78248    
       381   38.1           2550.2429     -54995.472      135399.03     -5.9120132     -6.238073       0.32605977     0.23910268    -121.65504      0.23761159    -118.80884    
       382   38.2           2546.191      -55075.704      134226.05     -5.9206382     -6.2461799      0.32554171     0.23945305    -120.99005      0.23794321    -118.06943    
       383   38.3           2542.9265     -55155.341      132510.49     -5.9291991     -6.2543235      0.32512432     0.23980331    -120.05459      0.23827488    -116.95684    
       384   38.4           2540.1656     -55234.647      129206.9      -5.9377246     -6.2624959      0.32477133     0.24015343    -118.06884      0.23860656    -114.66584    
       385   38.5           2537.998      -55313.364      126415.12     -5.9461866     -6.2706808      0.3244942      0.24050332    -116.29473      0.23893815    -112.71269    
       386   38.6           2536.4701     -55391.511      124363.11     -5.9545875     -6.2788863      0.32429885     0.24085293    -115.11486      0.23926958    -111.09484    
       387   38.7           2535.2133     -55469.585      121903.35     -5.9629804     -6.2871186      0.32413817     0.24120221    -113.38042      0.23960077    -109.23539    
       388   38.8           2533.6414     -55547.069      119795.68     -5.9713099     -6.2952471      0.32393719     0.24155108    -111.79792      0.23993166    -107.50143    
       389   38.9           2531.2007     -55624.322      118693.87     -5.9796147     -6.3032398      0.32362513     0.2418995     -110.71425      0.24026217    -106.62039    
       390   39             2527.2095     -55701.414      118269.65     -5.987902      -6.3110168      0.32311485     0.24224743    -109.9844       0.24059228    -106.32626    
       391   39.1           2521.0593     -55777.794      116901.41     -5.9961128     -6.3184413      0.32232851     0.24259485    -108.77151      0.240922      -105.27109    
       392   39.2           2513.4453     -55853.614      113662.76     -6.0042635     -6.3256186      0.32135503     0.24294173    -106.33865      0.24125128    -102.70376    
       393   39.3           2505.8258     -55928.884      110352.9      -6.0123551     -6.3327359      0.32038085     0.24328796    -103.93883      0.24158002    -100.11026    
       394   39.4           2498.6085     -56003.581      107821.98     -6.020385      -6.339843       0.31945807     0.24363346    -102.0727       0.24190812    -98.354443    
       395   39.5           2490.8396     -56077.495      105841.13     -6.0283307     -6.3467955      0.31846479     0.24397815    -100.4562       0.24223552    -97.300499    
       396   39.6           2482.1007     -56150.886      104869.89     -6.0362203     -6.3535677      0.31734749     0.24432197    -99.43398       0.24256217    -96.868882    
       397   39.7           2472.9854     -56223.963      105123.57     -6.044076      -6.3602581      0.31618205     0.24466492    -99.040492      0.24288809    -97.29392     
       398   39.8           2463.4125     -56296.889      106255.35     -6.0519156     -6.3668737      0.31495811     0.24500698    -99.486951      0.24321331    -98.111563    
       399   39.9           2452.9906     -56369.444      106376.88     -6.0597152     -6.3733408      0.31362562     0.24534821    -99.438411      0.2435379     -98.170347    
       400   40             2441.9847     -56441.699      104739.17     -6.0674826     -6.3797011      0.31221848     0.24568862    -98.240927      0.24386187    -96.942557    
       401   40.1           2431.2419     -56513.311      103428.06     -6.0751809     -6.3860259      0.31084496     0.24602819    -97.180579      0.24418519    -96.067252    
       402   40.2           2421.6942     -56584.507      103574.81     -6.0828345     -6.3924588      0.30962425     0.24636687    -97.099095      0.24450784    -96.3109      
       403   40.3           2413.9775     -56655.63       104215.28     -6.0904802     -6.3991179      0.30863763     0.2467047     -97.391175      0.24482984    -96.891321    
       404   40.4           2408.2724     -56726.696      104914.11     -6.0981198     -6.4060281      0.30790821     0.24704171    -97.65196       0.24515125    -97.523404    
       405   40.5           2404.2194     -56797.395      105016.24     -6.10572       -6.41311        0.30739002     0.24737794    -97.567142      0.2454721     -97.673567    
       406   40.6           2401.0799     -56868.031      103367.31     -6.1133133     -6.420302       0.30698861     0.2477134     -96.185477      0.24579244    -96.655754    
       407   40.7           2398.0576     -56938.001      101417.87     -6.1208351     -6.4274373      0.3066022      0.24804805    -94.636779      0.24611223    -95.264228    
       408   40.8           2394.8521     -57007.653      99379.463     -6.1283227     -6.4345151      0.30619237     0.24838183    -93.127791      0.24643141    -93.647798    
       409   40.9           2391.7254     -57076.897      98184.55      -6.1357665     -6.4415591      0.30579261     0.2487147     -92.285351      0.24674993    -92.51249     
       410   41             2389.1362     -57145.89       97670.518     -6.1431832     -6.4486447      0.30546156     0.24904664    -91.910734      0.24706775    -91.782648    
       411   41.1           2387.0451     -57214.763      96851.878     -6.150587      -6.4557813      0.3051942      0.24937765    -91.509517      0.24738486    -90.730956    
       412   41.2           2384.1718     -57283.507      95581.606     -6.157977      -6.4628038      0.30482685     0.24970775    -91.196318      0.24770122    -89.096143    
       413   41.3           2379.1481     -57351.549      94738.726     -6.1652916     -6.4694761      0.30418454     0.25003693    -91.365205      0.24801679    -87.65294     
       414   41.4           2372.28       -57419.244      94797.559     -6.1725688     -6.4758752      0.30330642     0.25036523    -92.052017      0.2483315     -86.950676    
       415   41.5           2365.1056     -57486.878      95534.79      -6.1798394     -6.4822285      0.30238915     0.25069271    -92.930794      0.24864535    -87.011594    
       416   41.6           2358.6833     -57554.449      96184.529     -6.1871033     -6.4886713      0.30156803     0.25101942    -93.592311      0.24895836    -87.073521    
       417   41.7           2353.0213     -57622.003      96084.198     -6.1943653     -6.4952094      0.30084412     0.25134544    -93.653741      0.24927056    -86.693815    
       418   41.8           2347.7879     -57689.147      95048.457     -6.2015833     -6.5017583      0.30017501     0.25167077    -92.999858      0.24958196    -85.753789    
       419   41.9           2342.6766     -57755.865      92987.461     -6.2087555     -6.508277       0.2995215      0.25199541    -91.293631      0.24989252    -84.31888     
       420   42             2338.2716     -57821.729      90196.591     -6.2158359     -6.5147942      0.2989583      0.25231929    -88.824355      0.25020219    -82.630088    
       421   42.1           2336.7219     -57887.623      88866.6       -6.2229194     -6.5216796      0.29876017     0.25264232    -87.975746      0.25051093    -81.533313    
       422   42.2           2336.9238     -57953.354      89038.066     -6.2299856     -6.5287716      0.29878598     0.25296447    -88.593         0.25081869    -81.204614    
[...]
     10895   1089.5         539.2631      -70941.228     -18119.93      -7.626182      -7.6951292      0.068947158    1.762627       33.79354       0.14442075    -0.86973051   
     10896   1089.6         539.34596     -70941.635     -18388.235     -7.6262257     -7.6951835      0.068957751    1.7627658      34.037534      0.14442548    -0.6509226    
     10897   1089.7         539.4045      -70942.177     -18665.529     -7.626284      -7.6952492      0.068965236    1.7629047      34.241057      0.14443027    -0.37221193   
     10898   1089.8         539.48138     -70942.525     -18872.627     -7.6263214     -7.6952965      0.068975066    1.7630436      34.414399      0.14443509    -0.15893243   
     10899   1089.9         539.64724     -70942.793     -18909.894     -7.6263502     -7.6953465      0.068996272    1.7631824      34.439706      0.14443992    -0.10371884   
     10900   1090           539.87555     -70942.798     -18772.383     -7.6263508     -7.6953763      0.069025462    1.7633213      34.449804      0.14444475    -0.33147676   
     10901   1090.1         540.12264     -70943.086     -18656.543     -7.6263818     -7.6954388      0.069057053    1.7634601      34.388138      0.14444962    -0.47013481   
     10902   1090.2         540.35459     -70943.448     -18544.797     -7.6264206     -7.6955073      0.069086709    1.763599       34.34638       0.14445452    -0.62838073   
     10903   1090.3         540.48753     -70943.753     -18384.119     -7.6264534     -7.6955571      0.069103706    1.7637379      34.219272      0.14445948    -0.79263833   
     10904   1090.4         540.47729     -70944.011     -18159.187     -7.6264812     -7.6955836      0.069102397    1.7638767      34.006012      0.14446451    -0.97868718   
     10905   1090.5         540.31218     -70944.13      -17850.814     -7.626494      -7.6955753      0.069081287    1.7640156      33.701644      0.14446962    -1.2166348    
     10906   1090.6         540.09976     -70944.344     -17730.505     -7.6265169     -7.6955711      0.069054128    1.7641544      33.629786      0.14447484    -1.3218566    
     10907   1090.7         539.9497      -70944.56      -17671.259     -7.6265402     -7.6955751      0.069034943    1.7642933      33.590712      0.14448018    -1.3847317    
     10908   1090.8         539.88766     -70945.011     -17707.949     -7.6265887     -7.6956157      0.06902701     1.7644322      33.606962      0.14448564    -1.3397785    
     10909   1090.9         539.92527     -70945.332     -17686.654     -7.6266231     -7.695655       0.069031819    1.764571       33.578863      0.14449122    -1.3468526    
     10910   1091           540.06036     -70945.654     -17662.883     -7.6266578     -7.6957069      0.069049091    1.7647099      33.537609      0.14449692    -1.3458199    
     10911   1091.1         540.25605     -70945.846     -17664.375     -7.6266784     -7.6957525      0.069074111    1.7648487      33.499312      0.14450274    -1.3116003    
     10912   1091.2         540.47242     -70946.382     -17788.141     -7.6267361     -7.6958379      0.069101774    1.7649876      33.562015      0.14450868    -1.1670313    
     10913   1091.3         540.68188     -70946.713     -17840.379     -7.6267717     -7.6959002      0.069128554    1.7651265      33.531738      0.14451471    -1.0442815    
     10914   1091.4         540.83133     -70947.036     -17912.717     -7.6268064     -7.695954       0.069147663    1.7652653      33.523634      0.14452084    -0.88474406   
     10915   1091.5         540.88437     -70947.36      -17989.537     -7.6268412     -7.6959956      0.069154444    1.7654042      33.489413      0.14452705    -0.71226179   
     10916   1091.6         540.86414     -70947.68      -18038.194     -7.6268756     -7.6960274      0.069151857    1.765543       33.440731      0.14453332    -0.57594026   
     10917   1091.7         540.84653     -70948.135     -18067.571     -7.6269245     -7.6960741      0.069149607    1.7656819      33.383001      0.14453963    -0.47495251   
     10918   1091.8         540.8827      -70948.47      -17937.078     -7.6269606     -7.6961148      0.069154231    1.7658208      33.234706      0.14454599    -0.56320215   
     10919   1091.9         540.91722     -70948.816     -17753.76      -7.6269977     -7.6961564      0.069158644    1.7659596      33.03189       0.14455239    -0.72663521   
     10920   1092           540.86913     -70949.144     -17677.735     -7.6270329     -7.6961854      0.069152495    1.7660985      33.018129      0.14455886    -0.8416252    
     10921   1092.1         540.7223      -70949.363     -17505.007     -7.6270565     -7.6961902      0.069133722    1.7662373      32.921796      0.14456539    -1.0492133    
     10922   1092.2         540.50852     -70949.71      -17435.791     -7.6270939     -7.6962003      0.06910639     1.7663762      32.88879       0.14457202    -1.1422213    
     10923   1092.3         540.26892     -70950.099     -17487.703     -7.6271357     -7.6962114      0.069075756    1.7665151      32.925876      0.14457875    -1.099417     
     10924   1092.4         540.05181     -70950.443     -17499.364     -7.6271726     -7.6962206      0.069047997    1.7666539      32.952305      0.14458558    -1.105872     
     10925   1092.5         539.88584     -70950.722     -17423.605     -7.6272027     -7.6962294      0.069026778    1.7667928      32.948363      0.1445925     -1.2381722    
     10926   1092.6         539.80637     -70951.125     -17415.434     -7.627246      -7.6962626      0.069016617    1.7669316      32.997667      0.14459953    -1.2876473    
     10927   1092.7         539.81597     -70951.668     -17581.525     -7.6273043     -7.6963222      0.069017844    1.7670705      33.119851      0.14460668    -1.1074763    
     10928   1092.8         539.8884      -70951.978     -17540.399     -7.6273376     -7.6963648      0.069027105    1.7672094      33.072352      0.14461392    -1.1112748    
     10929   1092.9         540.01321     -70952.445     -17686.96      -7.6273878     -7.6964309      0.069043062    1.7673482      33.19584       0.14462126    -0.99145026   
     10930   1093           540.1673      -70952.783     -17818.492     -7.6274242     -7.696487       0.069062763    1.7674871      33.313059      0.14462868    -0.87114228   
     10931   1093.1         540.3121      -70953.116     -17992.929     -7.6274599     -7.6965412      0.069081277    1.7676259      33.458339      0.14463618    -0.70001682   
     10932   1093.2         540.42214     -70953.437     -18198.364     -7.6274945     -7.6965899      0.069095346    1.7677648      33.623372      0.14464374    -0.49147439   
     10933   1093.3         540.5193      -70953.689     -18391.169     -7.6275216     -7.6966294      0.069107768    1.7679037      33.80749       0.14465134    -0.32047107   
     10934   1093.4         540.65168     -70953.983     -18548.99      -7.6275532     -7.6966779      0.069124694    1.7680425      34.001939      0.14465896    -0.22055494   
     10935   1093.5         540.86373     -70954.285     -18545.58      -7.6275856     -7.6967374      0.069151806    1.7681814      34.033455      0.1446666     -0.25395771   
     10936   1093.6         541.10755     -70954.6       -18525.099     -7.6276195     -7.6968025      0.069182979    1.7683202      34.130359      0.14467426    -0.38293909   
     10937   1093.7         541.28492     -70955.072     -18436.114     -7.6276702     -7.6968759      0.069205656    1.7684591      34.158566      0.14468195    -0.57489422   
     10938   1093.8         541.33281     -70955.473     -18423.801     -7.6277134     -7.6969252      0.069211778    1.768598       34.263694      0.14468969    -0.6992403    
     10939   1093.9         541.25008     -70955.768     -18381.473     -7.6277451     -7.6969463      0.069201202    1.7687368      34.292552      0.14469748    -0.8017993    
     10940   1094           541.09115     -70956.065     -18386.68      -7.627777      -7.6969578      0.069180882    1.7688757      34.354156      0.14470535    -0.85120021   
     10941   1094.1         540.89312     -70956.484     -18484.279     -7.6278221     -7.6969776      0.069155563    1.7690145      34.471612      0.14471328    -0.79943688   
     10942   1094.2         540.67553     -70956.832     -18556.918     -7.6278594     -7.6969872      0.069127743    1.7691534      34.549801      0.14472129    -0.7762962    
     10943   1094.3         540.49043     -70956.898     -18549.723     -7.6278666     -7.6969706      0.069104077    1.7692923      34.579607      0.14472936    -0.79787671   
     10944   1094.4         540.3996      -70957.18      -18593.398     -7.6278968     -7.6969893      0.069092464    1.7694311      34.626018      0.1447375     -0.76469466   
     10945   1094.5         540.42183     -70957.559     -18656.458     -7.6279376     -7.6970329      0.069095307    1.76957        34.666126      0.1447457     -0.68988351   
     10946   1094.6         540.53193     -70957.682     -18537.905     -7.6279509     -7.6970602      0.069109383    1.7697088      34.464102      0.14475397    -0.69287811   
     10947   1094.7         540.69542     -70957.937     -18522.239     -7.6279782     -7.6971085      0.069130286    1.7698477      34.367535      0.14476229    -0.62527374   
     10948   1094.8         540.89897     -70957.982     -18510.016     -7.6279831     -7.6971394      0.06915631     1.7699866      34.313761      0.14477066    -0.57825909   
     10949   1094.9         541.10794     -70958.28      -18634.493     -7.6280152     -7.6971982      0.069183028    1.7701254      34.337058      0.14477908    -0.37720065   
     10950   1095           541.29072     -70958.474     -18651.893     -7.6280359     -7.6972423      0.069206397    1.7702643      34.24057       0.14478753    -0.21833331   
     10951   1095.1         541.47133     -70958.768     -18690.498     -7.6280675     -7.697297       0.069229489    1.7704031      34.158313      0.144796      -0.069787702  
     10952   1095.2         541.6892      -70959.139     -18671.273     -7.6281074     -7.6973647      0.069257345    1.770542       34.01443       0.14480446     0.022979033  
     10953   1095.3         541.94381     -70959.558     -18463.632     -7.6281525     -7.6974424      0.069289898    1.7706809      33.780297      0.14481292    -0.12120443   
     10954   1095.4         542.16539     -70959.917     -18129.391     -7.6281911     -7.6975093      0.069318228    1.7708197      33.455171      0.14482139    -0.39616419   
     10955   1095.5         542.21029     -70960.254     -17805.688     -7.6282273     -7.6975512      0.069323968    1.7709586      33.143285      0.14482988    -0.67167157   
     10956   1095.6         542.07372     -70960.736     -17686.111     -7.6282792     -7.6975857      0.069306508    1.7710975      33.046917      0.14483844    -0.80322067   
     10957   1095.7         541.85579     -70961.215     -17612.276     -7.6283306     -7.6976093      0.069278644    1.7712363      32.977513      0.14484706    -0.89104684   
     10958   1095.8         541.59141     -70961.615     -17609.318     -7.6283736     -7.6976185      0.069244842    1.7713752      32.941746      0.14485576    -0.87579064   
     10959   1095.9         541.32621     -70961.972     -17571.702     -7.6284119     -7.6976229      0.069210936    1.771514       32.89579       0.14486453    -0.90083392   
     10960   1096           541.0989      -70962.429     -17529.223     -7.6284612     -7.697643       0.069181872    1.7716529      32.868726      0.14487338    -0.96170715   
     10961   1096.1         540.95653     -70962.787     -17531.916     -7.6284997     -7.6976633      0.06916367     1.7717918      32.858489      0.14488231    -0.94765312   
     10962   1096.2         540.91454     -70963.282     -17740.204     -7.6285528     -7.6977111      0.069158301    1.7719306      33.026251      0.14489132    -0.77165733   
     10963   1096.3         540.94908     -70963.634     -17779.632     -7.6285906     -7.6977534      0.069162718    1.7720695      33.040167      0.1449004     -0.71468674   
     10964   1096.4         541.02981     -70964.01      -17936.249     -7.6286311     -7.6978041      0.069173039    1.7722083      33.205103      0.14490954    -0.59435854   
     10965   1096.5         541.09654     -70964.368     -18172.177     -7.6286695     -7.6978511      0.06918157     1.7723472      33.444705      0.14491873    -0.40555132   
     10966   1096.6         541.12124     -70964.77      -18440.033     -7.6287128     -7.6978975      0.069184728    1.7724861      33.656528      0.14492795    -0.13643857   
     10967   1096.7         541.10869     -70964.95      -18612.689     -7.6287321     -7.6979152      0.069183124    1.7726249      33.789762      0.14493717     0.057773346  
     10968   1096.8         541.09892     -70965.322     -18789.032     -7.6287721     -7.697954       0.069181876    1.7727638      33.944805      0.14494639     0.23728209   
     10969   1096.9         541.18919     -70965.576     -18879.572     -7.6287994     -7.6979929      0.069193416    1.7729026      34.036314      0.14495558     0.33383725   
     10970   1097           541.44087     -70965.666     -18694.497     -7.6288091     -7.6980347      0.069225595    1.7730415      33.88291       0.14496473     0.18690085   
     10971   1097.1         541.79525     -70965.865     -18468.68      -7.6288305     -7.6981014      0.069270904    1.7731804      33.705526      0.14497386    -0.033184723  
     10972   1097.2         542.14275     -70966.195     -18260.486     -7.628866      -7.6981813      0.069315334    1.7733192      33.572073      0.14498299    -0.27455564   
     10973   1097.3         542.40438     -70966.59      -18100.1       -7.6289084     -7.6982572      0.069348784    1.7734581      33.459859      0.14499213    -0.45669432   
     10974   1097.4         542.55358     -70966.852     -17830.116     -7.6289366     -7.6983045      0.06936786     1.7735969      33.248357      0.14500132    -0.72142957   
     10975   1097.5         542.61715     -70967.072     -17617.847     -7.6289602     -7.6983362      0.069375987    1.7737358      33.046107      0.14501056    -0.89486961   
     10976   1097.6         542.58736     -70967.466     -17583.516     -7.6290025     -7.6983747      0.069372179    1.7738747      33.060429      0.14501988    -0.97023833   
     10977   1097.7         542.47885     -70967.822     -17599.801     -7.6290409     -7.6983992      0.069358305    1.7740135      33.082313      0.14502929    -0.96214051   
     10978   1097.8         542.3169      -70968.04      -17530.113     -7.6290643     -7.6984019      0.069337599    1.7741524      32.994348      0.14503877    -0.99980494   
     10979   1097.9         542.10242     -70968.28      -17507.292     -7.6290901     -7.6984003      0.069310177    1.7742912      32.958187      0.14504834    -0.99975448   
     10980   1098           541.89167     -70968.54      -17596.886     -7.629118      -7.6984013      0.069283232    1.7744301      33.060058      0.145058      -0.94097992   
     10981   1098.1         541.72463     -70969.147     -17798.299     -7.6291833     -7.6984451      0.069261875    1.774569       33.185802      0.14506774    -0.73748538   
     10982   1098.2         541.59956     -70969.822     -18252.49      -7.6292559     -7.6985018      0.069245885    1.7747078      33.618645      0.14507754    -0.36730111   
     10983   1098.3         541.48696     -70970.15      -18514.335     -7.6292911     -7.6985226      0.069231488    1.7748467      33.79082       0.14508737    -0.070590401  
     10984   1098.4         541.39992     -70970.463     -18778.922     -7.6293247     -7.6985451      0.069220359    1.7749855      33.947414      0.1450972      0.24662597   
     10985   1098.5         541.39923     -70970.767     -18989.38      -7.6293575     -7.6985777      0.069220271    1.7751244      34.061351      0.145107       0.50835692   
     10986   1098.6         541.58717     -70971.068     -19073.252     -7.6293898     -7.6986341      0.0692443      1.7752633      34.08749       0.14511674     0.62871408   
     10987   1098.7         542.00935     -70971.423     -19066.928     -7.6294279     -7.6987262      0.069298278    1.7754021      34.094152      0.14512643     0.60578353   
     10988   1098.8         542.57362     -70971.649     -18871.526     -7.6294523     -7.6988227      0.069370422    1.775541       34.000164      0.14513605     0.35226902   
     10989   1098.9         543.09545     -70971.896     -18586.129     -7.6294789     -7.698916       0.06943714     1.7756798      33.825556      0.14514564     0.035579288  
     10990   1099           543.44707     -70972.234     -18320.997     -7.6295152     -7.6989973      0.069482096    1.7758187      33.616484      0.14515521    -0.24171446   
     10991   1099.1         543.59004     -70972.715     -18300.469     -7.6295668     -7.6990672      0.069500375    1.7759576      33.603552      0.14516481    -0.29097605   
     10992   1099.2         543.54246     -70973.102     -18130.56      -7.6296085     -7.6991028      0.069494293    1.7760964      33.455166      0.14517442    -0.47452845   
     10993   1099.3         543.4015      -70973.65      -18171.375     -7.6296674     -7.6991436      0.06947627     1.7762353      33.454235      0.14518407    -0.41953386   
     10994   1099.4         543.22472     -70973.751     -18034.875     -7.6296783     -7.6991319      0.069453669    1.7763741      33.271817      0.14519376    -0.48061554   
     10995   1099.5         543.07056     -70974.104     -18066.099     -7.6297161     -7.6991501      0.069433958    1.776513       33.303104      0.14520348    -0.45961156   
     10996   1099.6         542.9954      -70974.455     -18080.807     -7.6297539     -7.6991783      0.069424349    1.7766519      33.309243      0.14521324    -0.44244154   
     10997   1099.7         543.00469     -70974.808     -18082.08      -7.6297918     -7.6992174      0.069425537    1.7767907      33.292846      0.14522303    -0.42624485   
     10998   1099.8         543.06294     -70975.289     -18321.213     -7.6298436     -7.6992766      0.069432983    1.7769296      33.473853      0.14523286    -0.20654348   
     10999   1099.9         543.11746     -70975.637     -18394.394     -7.629881      -7.699321       0.069439954    1.7770684      33.488137      0.1452427     -0.091105474  
     11000   1100           543.14435     -70975.984     -18504.821     -7.6299182     -7.6993616      0.069443392    1.7772073      33.515929      0.14525254     0.080336774  
Loop time of 134.177 on 64 procs for 10000 steps with 400 atoms

Performance: 0.644 ns/day, 37.271 hours/ns, 74.529 timesteps/s
6189.7% CPU use with 1 MPI tasks x 64 OpenMP threads

MPI task timing breakdown:
Section |  min time  |  avg time  |  max time  |%varavg| %total
---------------------------------------------------------------
Pair    | 132.83     | 132.83     | 132.83     |   0.0 | 99.00
Neigh   | 0.10911    | 0.10911    | 0.10911    |   0.0 |  0.08
Comm    | 0.039624   | 0.039624   | 0.039624   |   0.0 |  0.03
Output  | 0.60385    | 0.60385    | 0.60385    |   0.0 |  0.45
Modify  | 0.55303    | 0.55303    | 0.55303    |   0.0 |  0.41
Other   |            | 0.03728    |            |       |  0.03

Nlocal:            400 ave         400 max         400 min
Histogram: 1 0 0 0 0 0 0 0 0 0
Nghost:            696 ave         696 max         696 min
Histogram: 1 0 0 0 0 0 0 0 0 0
Neighs:          35477 ave       35477 max       35477 min
Histogram: 1 0 0 0 0 0 0 0 0 0

Total # of neighbors = 35477
Ave neighs/atom = 88.6925
Neighbor list builds = 63
Dangerous builds = 0
Total wall time: 0:02:35
