LAMMPS (23 Jun 2022 - Update 2)
  using 64 OpenMP thread(s) per MPI task
################################################################################
# GRAPHENE: POTENTIAL PROFILE
################################################################################
#
# Input script for lammps to calculate the potential energy in function of the
# distance between carbon atoms in a graphene layer.
#
# When using this script, make sure that lammps is installed with the USER-REAXC
# and the MANYBODY packages.
#
# Date: 28/03/2016
# Author: Jeroen Mulkers
# Mail: jeroen.mulkers@uantwerpen.be
#
################################################################################


# UNITS
# 'real' units are needed when using reax/c. A useful energy conversion factor
# is defined.
units        real
variable     fenergy equal 0.043 # Kcal/mole -> eV

# Silicon sheet
# The atom positions and the simulation box size will be read from a data file.
# Reactive force fields (reaxFF) are used to describe the interaction between
# the carbon atoms.(The pair_style reax is deprecated. so we use the modern
# reax/c implementation)
dimension    2
boundary     p p p
atom_style   charge
read_data    silicene.dat
Reading data file ...
  orthogonal box = (0 0 -10) to (65.502 37.8176 10)
  1 by 1 by 1 MPI processor grid
  reading atoms ...
  400 atoms
  read_data CPU = 0.004 seconds
pair_style   reax/c NULL checkqeq no
pair_coeff   * * ffield.reax.CHONSSi.2 Si
change_box all x scale 0.75 y scale 0.75 remap
Changing box ...
  orthogonal box = (8.18775 0 -10) to (57.31425 37.8176 10)
  orthogonal box = (8.18775 4.7272 -10) to (57.31425 33.0904 10)

# OUTPUT
# Calculate the average total energy per atom and the distance 'a' between
# carbon atoms in two ways (should give the same size)
variable     energy equal etotal/atoms*${fenergy}
variable     energy equal etotal/atoms*0.043
variable     a1 equal lx/3
variable     a2 equal ly/sqrt(3)
thermo_style custom step etotal pe ke v_energy v_a1 v_a2 pxx pyy
dump dumpID all xyz 50 dump.xyz

# DEFORMATION
fix          1 all deform 1 x erate 0.001 y erate 0.001 remap x
thermo       1
run          2000

CITE-CITE-CITE-CITE-CITE-CITE-CITE-CITE-CITE-CITE-CITE-CITE-CITE

Your simulation uses code contributions which should be cited:

- pair reaxff command:

@Article{Aktulga12,
 author = {H. M. Aktulga, J. C. Fogarty, S. A. Pandit, A. Y. Grama},
 title = {Parallel reactive molecular dynamics: Numerical methods and algorithmic techniques},
 journal = {Parallel Computing},
 year =    2012,
 volume =  38,
 pages =   {245--259}
}

CITE-CITE-CITE-CITE-CITE-CITE-CITE-CITE-CITE-CITE-CITE-CITE-CITE

WARNING: No fixes with time integration, atoms won't move (src/verlet.cpp:60)
Neighbor list info ...
  update every 1 steps, delay 10 steps, check yes
  max neighbors/atom: 2000, page size: 100000
  master list distance cutoff = 12
  ghost atom cutoff = 12
  binsize = 6, bins = 9 5 4
  1 neighbor lists, perpetual/occasional/extra = 1 0 0
  (1) pair reax/c, perpetual
      attributes: half, newton off, ghost
      pair build: half/bin/newtoff/ghost
      stencil: full/ghost/bin/2d
      bin: standard
Per MPI rank memory allocation (min/avg/max) = 74.76 | 74.76 | 74.76 Mbytes
   Step         TotEng         PotEng         KinEng        v_energy         v_a1           v_a2           Pxx            Pyy      
         0  -6806.3725     -6806.3725      0             -0.73168505     16.3755        16.375501      7372418.8      7372416.7    
         1  -6806.3725     -6806.3725      0             -0.73168505     16.391875      16.391877      7357696.1      7357694      
         2  -7104.3743     -7104.3743      0             -0.76372024     16.408251      16.408252      7268844.6      7268842.5    
         3  -7398.8686     -7398.8686      0             -0.79537838     16.424626      16.424628      7171332.4      7171330.4    
         4  -7689.5204     -7689.5204      0             -0.82662344     16.441002      16.441003      7066434.3      7066432.2    
         5  -7976.0452     -7976.0452      0             -0.85742486     16.457377      16.457379      6955400.4      6955398.3    
         6  -8258.2076     -8258.2076      0             -0.88775732     16.473753      16.473754      6839408.8      6839406.7    
         7  -8535.818      -8535.818       0             -0.91760044     16.490128      16.49013       6719538.1      6719536      
         8  -8808.7279     -8808.7279      0             -0.94693825     16.506504      16.506505      6596754.3      6596752.3    
         9  -9076.8258     -9076.8258      0             -0.97575877     16.522879      16.522881      6471908.2      6471906.2    
        10  -9340.0324     -9340.0324      0             -1.0040535      16.539255      16.539256      6345738.1      6345736.1    
        11  -9598.2965     -9598.2965      0             -1.0318169      16.55563       16.555632      6218877.9      6218875.9    
        12  -9851.5907     -9851.5907      0             -1.059046       16.572006      16.572007      6091865.9      6091863.9    
        13  -10099.908     -10099.908      0             -1.0857401      16.588381      16.588383      5965155.2      5965153.2    
        14  -10343.259     -10343.259      0             -1.1119003      16.604757      16.604758      5839124.1      5839122.2    
        15  -10581.668     -10581.668      0             -1.1375293      16.621132      16.621134      5714086.1      5714084.2    
        16  -10815.171     -10815.171      0             -1.1626308      16.637508      16.637509      5590298.9      5590297.1    
        17  -11043.814     -11043.814      0             -1.18721        16.653883      16.653885      5467972.8      5467971      
        18  -11267.651     -11267.651      0             -1.2112725      16.670259      16.67026       5347277.8      5347276      
        19  -11486.743     -11486.743      0             -1.2348249      16.686634      16.686636      5228350.5      5228348.8    
        20  -11701.157     -11701.157      0             -1.2578744      16.70301       16.703011      5111299.3      5111297.5    
        21  -11910.961     -11910.961      0             -1.2804283      16.719385      16.719387      4996209        4996207.3    
        22  -12116.23      -12116.23       0             -1.3024947      16.735761      16.735762      4883145.3      4883143.6    
        23  -12317.04      -12317.04       0             -1.3240818      16.752136      16.752138      4772157.9      4772156.2    
        24  -12513.468     -12513.468      0             -1.3451978      16.768512      16.768513      4663283.2      4663281.5    
        25  -12705.595     -12705.595      0             -1.3658515      16.784887      16.784889      4556547.1      4556545.5    
        26  -12893.501     -12893.501      0             -1.3860514      16.801263      16.801264      4451966.5      4451964.9    
        27  -13077.269     -13077.269      0             -1.4058064      16.817638      16.81764       4349551.2      4349549.7    
        28  -13256.979     -13256.979      0             -1.4251252      16.834014      16.834015      4249305.1      4249303.6    
        29  -13432.715     -13432.715      0             -1.4440169      16.850389      16.850391      4151227.5      4151226      
        30  -13604.56      -13604.56       0             -1.4624901      16.866765      16.866766      4055313.5      4055312      
        31  -13772.595     -13772.595      0             -1.480554       16.88314       16.883142      3961555.2      3961553.8    
        32  -13936.904     -13936.904      0             -1.4982172      16.899516      16.899517      3869942.2      3869940.8    
        33  -14097.569     -14097.569      0             -1.5154887      16.915891      16.915893      3780461.7      3780460.4    
        34  -14254.672     -14254.672      0             -1.5323772      16.932267      16.932268      3693099.4      3693098.1    
        35  -14408.294     -14408.294      0             -1.5488916      16.948642      16.948644      3607839.3      3607838.1    
        36  -14558.517     -14558.517      0             -1.5650406      16.965018      16.965019      3524664.4      3524663.2    
        37  -14705.422     -14705.422      0             -1.5808329      16.981393      16.981395      3443556.5      3443555.3    
        38  -14849.088     -14849.088      0             -1.596277       16.997769      16.99777       3364496.4      3364495.3    
        39  -14989.595     -14989.595      0             -1.6113815      17.014144      17.014146      3287464.3      3287463.3    
        40  -15127.023     -15127.023      0             -1.6261549      17.03052       17.030521      3212439.6      3212438.6    
        41  -15261.448     -15261.448      0             -1.6406057      17.046895      17.046897      3139401        3139400.1    
        42  -15392.95      -15392.95       0             -1.6547422      17.063271      17.063272      3068326.7      3068325.7    
        43  -15521.606     -15521.606      0             -1.6685726      17.079646      17.079648      2999194.1      2999193.2    
        44  -15647.49      -15647.49       0             -1.6821052      17.096022      17.096023      2931980.3      2931979.4    
        45  -15770.68      -15770.68       0             -1.695348       17.112397      17.112399      2866661.6      2866660.8    
        46  -15891.248     -15891.248      0             -1.7083092      17.128773      17.128774      2803214.1      2803213.3    
        47  -16009.271     -16009.271      0             -1.7209966      17.145148      17.14515       2741613        2741612.3    
        48  -16124.82      -16124.82       0             -1.7334181      17.161524      17.161525      2681833.2      2681832.5    
        49  -16237.968     -16237.968      0             -1.7455815      17.177899      17.177901      2623849.1      2623848.4    
        50  -16348.785     -16348.785      0             -1.7574944      17.194275      17.194276      2567634.2      2567633.6    
        51  -16457.344     -16457.344      0             -1.7691645      17.21065       17.210652      2513161.9      2513161.3    
        52  -16563.712     -16563.712      0             -1.780599       17.227026      17.227027      2460404.8      2460404.2    
        53  -16667.959     -16667.959      0             -1.7918055      17.243402      17.243403      2409334.8      2409334.2    
        54  -16770.151     -16770.151      0             -1.8027912      17.259777      17.259778      2359923.5      2359923      
        55  -16870.356     -16870.356      0             -1.8135633      17.276152      17.276154      2312141.8      2312141.3    
        56  -16968.638     -16968.638      0             -1.8241286      17.292528      17.292529      2265959.9      2265959.5    
        57  -17065.063     -17065.063      0             -1.8344943      17.308903      17.308905      2221347.6      2221347.2    
        58  -17159.693     -17159.693      0             -1.844667       17.325279      17.32528       2178274        2178273.6    
        59  -17252.605     -17252.605      0             -1.854655       17.341655      17.341656      2137416.9      2137416.6    
        60  -17343.876     -17343.876      0             -1.8644667      17.35803       17.358031      2098063.6      2098063.3    
        61  -17433.567     -17433.567      0             -1.8741085      17.374405      17.374407      2060168.5      2060168.2    
        62  -17521.738     -17521.738      0             -1.8835868      17.390781      17.390782      2023697.1      2023696.9    
        63  -17608.445     -17608.445      0             -1.8929078      17.407156      17.407158      1988614.5      1988614.3    
        64  -17693.745     -17693.745      0             -1.9020776      17.423532      17.423533      1954885        1954884.9    
        65  -17777.693     -17777.693      0             -1.911102       17.439908      17.439909      1922472.4      1922472.3    
        66  -17860.343     -17860.343      0             -1.9199869      17.456283      17.456284      1891339.8      1891339.7    
        67  -17941.747     -17941.747      0             -1.9287378      17.472658      17.47266       1861450        1861449.9    
        68  -18021.956     -18021.956      0             -1.9373602      17.489034      17.489035      1832764.8      1832764.8    
        69  -18101.018     -18101.018      0             -1.9458594      17.505409      17.505411      1805246        1805246      
        70  -18178.981     -18178.981      0             -1.9542405      17.521785      17.521786      1778854.6      1778854.5    
        71  -18255.892     -18255.892      0             -1.9625084      17.538161      17.538162      1753551        1753551      
        72  -18331.795     -18331.795      0             -1.9706679      17.554536      17.554537      1729295.6      1729295.6    
        73  -18406.732     -18406.732      0             -1.9787237      17.570911      17.570913      1706047.9      1706047.9    
        74  -18480.745     -18480.745      0             -1.9866801      17.587287      17.587288      1683767.3      1683767.4    
        75  -18553.874     -18553.874      0             -1.9945414      17.603662      17.603664      1662412.9      1662413      
        76  -18626.156     -18626.156      0             -2.0023117      17.620038      17.620039      1641943.2      1641943.3    
        77  -18697.627     -18697.627      0             -2.0099949      17.636413      17.636415      1622316.8      1622316.9    
        78  -18768.322     -18768.322      0             -2.0175946      17.652789      17.65279       1603491.7      1603491.8    
        79  -18838.273     -18838.273      0             -2.0251144      17.669164      17.669166      1585426        1585426.1    
        80  -18907.512     -18907.512      0             -2.0325575      17.68554       17.685541      1568077.4      1568077.6    
        81  -18976.067     -18976.067      0             -2.0399272      17.701915      17.701917      1551403.8      1551404      
        82  -19043.966     -19043.966      0             -2.0472264      17.718291      17.718292      1535362.8      1535363      
        83  -19111.235     -19111.235      0             -2.0544577      17.734666      17.734668      1519912.1      1519912.3    
        84  -19177.897     -19177.897      0             -2.0616239      17.751042      17.751043      1505009.2      1505009.5    
        85  -19243.974     -19243.974      0             -2.0687272      17.767417      17.767419      1490612.2      1490612.4    
        86  -19309.487     -19309.487      0             -2.0757698      17.783793      17.783794      1476678.8      1476679.1    
        87  -19374.454     -19374.454      0             -2.0827538      17.800168      17.80017       1463167.2      1463167.5    
        88  -19438.891     -19438.891      0             -2.0896808      17.816544      17.816545      1450035.9      1450036.2    
        89  -19502.814     -19502.814      0             -2.0965525      17.832919      17.832921      1437243.4      1437243.7    
        90  -19566.235     -19566.235      0             -2.1033702      17.849295      17.849296      1424749        1424749.2    
        91  -19629.166     -19629.166      0             -2.1101353      17.86567       17.865672      1412511.9      1412512.2    
        92  -19691.616     -19691.616      0             -2.1168487      17.882046      17.882047      1400492.3      1400492.6    
        93  -19753.593     -19753.593      0             -2.1235113      17.898421      17.898423      1388650.6      1388650.9    
        94  -19815.104     -19815.104      0             -2.1301236      17.914797      17.914798      1376948        1376948.3    
        95  -19876.152     -19876.152      0             -2.1366863      17.931172      17.931174      1365346.1      1365346.4    
        96  -19936.74      -19936.74       0             -2.1431995      17.947548      17.947549      1353807.6      1353807.9    
        97  -19996.869     -19996.869      0             -2.1496635      17.963923      17.963925      1342295.7      1342296      
        98  -20056.54      -20056.54       0             -2.156078       17.980299      17.9803        1330774.5      1330774.8    
        99  -20115.749     -20115.749      0             -2.162443       17.996674      17.996676      1319209.1      1319209.4    
       100  -20174.492     -20174.492      0             -2.1687579      18.01305       18.013051      1307565.5      1307565.8    
       101  -20232.766     -20232.766      0             -2.1750223      18.029425      18.029427      1295810.6      1295810.9    
       102  -20290.563     -20290.563      0             -2.1812355      18.045801      18.045802      1283912.6      1283912.9    
       103  -20347.875     -20347.875      0             -2.1873965      18.062176      18.062178      1271840.6      1271840.8    
       104  -20404.692     -20404.692      0             -2.1935044      18.078552      18.078553      1259565        1259565.3    
       105  -20461.004     -20461.004      0             -2.1995579      18.094927      18.094929      1247057.4      1247057.7    
       106  -20516.799     -20516.799      0             -2.2055559      18.111303      18.111304      1234290.9      1234291.2    
       107  -20572.063     -20572.063      0             -2.2114968      18.127678      18.12768       1221239.8      1221240.1    
       108  -20626.782     -20626.782      0             -2.2173791      18.144054      18.144055      1207880        1207880.3    
       109  -20680.941     -20680.941      0             -2.2232012      18.160429      18.160431      1194189        1194189.2    
       110  -20734.523     -20734.523      0             -2.2289613      18.176805      18.176806      1180146.2      1180146.5    
       111  -20787.511     -20787.511      0             -2.2346574      18.19318       18.193182      1165733.4      1165733.6    
       112  -20839.886     -20839.886      0             -2.2402877      18.209556      18.209557      1150934.7      1150934.9    
       113  -20891.629     -20891.629      0             -2.2458501      18.225931      18.225933      1135737.5      1135737.7    
       114  -20942.721     -20942.721      0             -2.2513425      18.242307      18.242308      1120133.3      1120133.5    
       115  -20993.142     -20993.142      0             -2.2567628      18.258682      18.258684      1104118.8      1104119      
       116  -21042.873     -21042.873      0             -2.2621088      18.275058      18.275059      1087697.3      1087697.5    
       117  -21091.893     -21091.893      0             -2.2673785      18.291433      18.291435      1070881        1070881.2    
       118  -21140.184     -21140.184      0             -2.2725698      18.307809      18.30781       1053693.7      1053693.9    
       119  -21187.729     -21187.729      0             -2.2776808      18.324184      18.324186      1036173.7      1036173.8    
       120  -21234.511     -21234.511      0             -2.28271        18.34056       18.340561      1018377.9      1018378.1    
       121  -21280.52      -21280.52       0             -2.2876559      18.356935      18.356937      1000386        1000386.1    
       122  -21325.746     -21325.746      0             -2.2925177      18.373311      18.373312      982302.73      982302.84    
       123  -21370.187     -21370.187      0             -2.2972951      18.389686      18.389688      964258.8       964258.9     
       124  -21413.846     -21413.846      0             -2.3019885      18.406062      18.406063      946403.72      946403.81    
       125  -21456.81      -21456.81       0             -2.3066071      18.422437      18.422439      928557.62      928557.69    
       126  -21498.931     -21498.931      0             -2.3111351      18.438813      18.438814      911526.06      911526.12    
       127  -21540.319     -21540.319      0             -2.3155843      18.455188      18.45519       894895.86      894895.91    
       128  -21580.984     -21580.984      0             -2.3199558      18.471564      18.471565      878362.48      878362.51    
       129  -21620.916     -21620.916      0             -2.3242484      18.487939      18.487941      861147.18      861147.19    
       130  -21660.049     -21660.049      0             -2.3284553      18.504315      18.504316      841785.01      841785.01    
       131  -21698.236     -21698.236      0             -2.3325604      18.52069       18.520692      818048.56      818048.54    
       132  -21735.212     -21735.212      0             -2.3365353      18.537066      18.537067      787281.4       787281.36    
       133  -21770.599     -21770.599      0             -2.3403394      18.553441      18.553443      747408.43      747408.36    
       134  -21803.964     -21803.964      0             -2.3439261      18.569817      18.569818      698486.27      698486.18    
       135  -21834.949     -21834.949      0             -2.347257       18.586192      18.586194      643879.63      643879.51    
       136  -21863.426     -21863.426      0             -2.3503182      18.602568      18.602569      589827.01      589826.87    
       137  -21889.576     -21889.576      0             -2.3531294      18.618943      18.618945      543224.24      543224.07    
       138  -21913.868     -21913.868      0             -2.3557408      18.635319      18.63532       509104.95      509104.75    
       139  -21936.935     -21936.935      0             -2.3582205      18.651694      18.651696      489484.96      489484.7     
       140  -21959.441     -21959.441      0             -2.3606399      18.66807       18.668071      483772.94      483772.61    
       141  -21981.982     -21981.982      0             -2.3630631      18.684445      18.684447      489645.9       489645.36    
       142  -22005.002     -22005.002      0             -2.3655377      18.700821      18.700822      502130.4       502128.48    
       143  -22028.292     -22028.292      0             -2.3680414      18.717197      18.717198      509795.76      509795.78    
       144  -22052.974     -22052.974      0             -2.3706948      18.733572      18.733573      552516.87      552516.87    
       145  -22079.801     -22079.801      0             -2.3735786      18.749948      18.749949      600656.12      600656.11    
       146  -22108.982     -22108.982      0             -2.3767156      18.766323      18.766324      652257.93      652257.91    
       147  -22140.635     -22140.635      0             -2.3801183      18.782698      18.7827        705222.76      705222.73    
       148  -22174.778     -22174.778      0             -2.3837886      18.799074      18.799075      757369.68      757369.63    
       149  -22211.326     -22211.326      0             -2.3877175      18.815449      18.815451      806562.26      806562.2     
       150  -22250.098     -22250.098      0             -2.3918855      18.831825      18.831826      850861.75      850861.68    
       151  -22290.831     -22290.831      0             -2.3962643      18.848201      18.848202      888669.76      888669.68    
       152  -22333.194     -22333.194      0             -2.4008184      18.864576      18.864577      918830.75      918830.65    
       153  -22376.815     -22376.815      0             -2.4055076      18.880951      18.880953      940678.12      940678.01    
       154  -22421.299     -22421.299      0             -2.4102897      18.897327      18.897328      954022.31      954022.19    
       155  -22466.253     -22466.253      0             -2.4151221      18.913702      18.913704      959091.14      959091       
       156  -22511.299     -22511.299      0             -2.4199646      18.930078      18.930079      956439.57      956439.42    
       157  -22556.093     -22556.093      0             -2.42478        18.946454      18.946455      946847.48      946847.31    
       158  -22607.069     -22607.069      0             -2.4302599      18.962829      18.96283       1265377        1265376.3    
       159  -22665.943     -22665.943      0             -2.4365888      18.979204      18.979206      1232627.6      1232627      
       160  -22723.237     -22723.237      0             -2.442748       18.99558       18.995581      1196382        1196381.3    
       161  -22778.802     -22778.802      0             -2.4487212      19.011955      19.011957      1157382.8      1157382.1    
       162  -22832.521     -22832.521      0             -2.454496       19.028331      19.028332      1116297        1116296.3    
       163  -22884.305     -22884.305      0             -2.4600628      19.044707      19.044708      1073703.9      1073703.2    
       164  -22934.092     -22934.092      0             -2.4654149      19.061082      19.061083      1030092.3      1030091.6    
       165  -22981.84      -22981.84       0             -2.4705478      19.077457      19.077459      985864.54      985863.85    
       166  -23027.524     -23027.524      0             -2.4754589      19.093833      19.093834      941343.65      941342.96    
       167  -23071.133     -23071.133      0             -2.4801468      19.110208      19.11021       896783.33      896782.65    
       168  -23112.666     -23112.666      0             -2.4846116      19.126584      19.126585      852378.18      852377.5     
       169  -23152.131     -23152.131      0             -2.4888541      19.142959      19.142961      808273.85      808273.17    
       170  -23189.541     -23189.541      0             -2.4928756      19.159335      19.159336      764576.39      764575.71    
       171  -23224.913     -23224.913      0             -2.4966781      19.17571       19.175712      721360.56      721359.88    
       172  -23258.269     -23258.269      0             -2.5002639      19.192086      19.192087      678677.01      678676.33    
       173  -23289.63      -23289.63       0             -2.5036353      19.208461      19.208463      636558.34      636557.67    
       174  -23319.022     -23319.022      0             -2.5067949      19.224837      19.224838      595024.19      595023.51    
       175  -23346.469     -23346.469      0             -2.5097454      19.241212      19.241214      554085.34      554084.66    
       176  -23371.996     -23371.996      0             -2.5124896      19.257588      19.257589      513747.19      513746.52    
       177  -23395.628     -23395.628      0             -2.5150301      19.273963      19.273965      474012.59      474011.92    
       178  -23417.393     -23417.393      0             -2.5173697      19.290339      19.29034       434884.09      434883.42    
       179  -23437.314     -23437.314      0             -2.5195113      19.306714      19.306716      396365.98      396365.31    
       180  -23455.419     -23455.419      0             -2.5214575      19.32309       19.323091      358465.92      358465.26    
       181  -23471.735     -23471.735      0             -2.5232115      19.339465      19.339467      321196.44      321195.78    
       182  -23486.288     -23486.288      0             -2.524776       19.355841      19.355842      284576.24      284575.58    
       183  -23499.109     -23499.109      0             -2.5261542      19.372216      19.372218      248631.47      248630.82    
       184  -23510.227     -23510.227      0             -2.5273494      19.388592      19.388593      213396.89      213396.23    
       185  -23519.675     -23519.675      0             -2.5283651      19.404967      19.404969      178917         178916.35    
       186  -23527.487     -23527.487      0             -2.5292049      19.421343      19.421344      145247.22      145246.57    
       187  -23533.702     -23533.702      0             -2.529873       19.437718      19.43772       112454.95      112454.3     
       188  -23538.361     -23538.361      0             -2.5303738      19.454094      19.454095      80620.701      80620.053    
       189  -23541.51      -23541.51       0             -2.5307123      19.470469      19.470471      49839.164      49838.516    
       190  -23543.2       -23543.2        0             -2.530894       19.486845      19.486846      20220.213      20219.564    
       191  -23543.488     -23543.488      0             -2.5309249      19.50322       19.503222     -8110.1205     -8110.7699    
       192  -23542.437     -23542.437      0             -2.5308119      19.519596      19.519597     -35008.778     -35009.43     
       193  -23540.118     -23540.118      0             -2.5305627      19.535971      19.535973     -60314.93      -60315.585    
       194  -23536.611     -23536.611      0             -2.5301857      19.552347      19.552348     -83849.369     -83850.028    
       195  -23532.004     -23532.004      0             -2.5296905      19.568722      19.568724     -105414.1      -105414.76    
       196  -23526.398     -23526.398      0             -2.5290877      19.585098      19.585099     -124792.12     -124792.79    
       197  -23519.901     -23519.901      0             -2.5283894      19.601473      19.601475     -141747.49     -141748.17    
       198  -23512.637     -23512.637      0             -2.5276085      19.617849      19.61785      -156025.63     -156026.32    
       199  -23504.742     -23504.742      0             -2.5267598      19.634224      19.634226     -167353.92     -167354.62    
       200  -23496.366     -23496.366      0             -2.5258593      19.6506        19.650601     -175442.66     -175443.39    
       201  -23487.673     -23487.673      0             -2.5249248      19.666975      19.666977     -179986.35     -179987.09    
       202  -23478.843     -23478.843      0             -2.5239757      19.683351      19.683352     -180665.24     -180666       
       203  -23470.075     -23470.075      0             -2.523033       19.699726      19.699728     -177147.33     -177148.12    
       204  -23461.581     -23461.581      0             -2.5221199      19.716102      19.716103     -169090.65     -169091.47    
       205  -23453.593     -23453.593      0             -2.5212612      19.732477      19.732479     -156145.85     -156146.7     
       206  -23446.36      -23446.36       0             -2.5204837      19.748853      19.748854     -137959.1      -137959.99    
       207  -23440.15      -23440.15       0             -2.5198161      19.765228      19.76523      -114175.27     -114176.21    
       208  -23435.247     -23435.247      0             -2.519289       19.781604      19.781605     -84441.333     -84442.315    
       209  -23431.955     -23431.955      0             -2.5189352      19.797979      19.797981     -48409.931     -48410.966    
       210  -23430.595     -23430.595      0             -2.518789       19.814355      19.814356     -5743.1516     -5744.2455    
       211  -23431.505     -23431.505      0             -2.5188868      19.83073       19.830732      43883.636      43882.478    
       212  -23435.039     -23435.039      0             -2.5192667      19.847106      19.847107      100777.85      100776.62    
       213  -23441.568     -23441.568      0             -2.5199685      19.863481      19.863483      165225.75      165224.45    
       214  -23451.474     -23451.474      0             -2.5210335      19.879857      19.879858      237488.44      237487.06    
       215  -23465.156     -23465.156      0             -2.5225043      19.896232      19.896234      317797.94      317796.46    
       216  -23483.024     -23483.024      0             -2.5244251      19.912608      19.912609      406353.17      406351.6     
       217  -23505.495     -23505.495      0             -2.5268407      19.928983      19.928985      503316.07      503314.4     
       218  -23532.998     -23532.998      0             -2.5297973      19.945359      19.94536       608807.57      608805.79    
       219  -23565.964     -23565.964      0             -2.5333412      19.961734      19.961736      722903.57      722901.67    
       220  -23604.832     -23604.832      0             -2.5375194      19.97811       19.978111      845630.8       845628.79    
       221  -23650.037     -23650.037      0             -2.542379       19.994485      19.994487      976962.57      976960.43    
       222  -23702.018     -23702.018      0             -2.5479669      20.010861      20.010862      1116814.2      1116811.9    
       223  -23761.203     -23761.203      0             -2.5543294      20.027236      20.027238      1265038.4      1265035.9    
       224  -23828.018     -23828.018      0             -2.561512       20.043612      20.043613      1421419.9      1421417.4    
       225  -23902.874     -23902.874      0             -2.5695589      20.059987      20.059989      1585670.6      1585667.9    
       226  -23986.167     -23986.167      0             -2.5785129      20.076363      20.076364      1757423.5      1757420.7    
       227  -24078.274     -24078.274      0             -2.5884145      20.092738      20.09274       1936226.9      1936223.9    
       228  -24179.549     -24179.549      0             -2.5993015      20.109114      20.109115      2121538.3      2121535.1    
       229  -24290.315     -24290.315      0             -2.6112089      20.125489      20.125491      2312718.3      2312715      
       230  -24410.865     -24410.865      0             -2.6241679      20.141865      20.141866      2509025.2      2509021.7    
       231  -24541.448     -24541.448      0             -2.6382056      20.15824       20.158242      2709608.8      2709605.1    
       232  -24682.272     -24682.272      0             -2.6533442      20.174616      20.174617      2913506.9      2913503.1    
       233  -24833.493     -24833.493      0             -2.6696005      20.190991      20.190993      3119641.6      3119637.6    
       234  -24995.21      -24995.21       0             -2.6869851      20.207367      20.207368      3326818        3326813.8    
       235  -25167.461     -25167.461      0             -2.705502       20.223742      20.223744      3533725.1      3533720.8    
       236  -25350.212     -25350.212      0             -2.7251478      20.240118      20.240119      3738939.5      3738935.1    
       237  -25543.358     -25543.358      0             -2.745911       20.256493      20.256495      3940932.7      3940928.2    
       238  -25746.712     -25746.712      0             -2.7677716      20.272869      20.27287       4138081.2      4138076.6    
       239  -25960.005     -25960.005      0             -2.7907005      20.289244      20.289246      4328682.1      4328677.3    
       240  -26182.877     -26182.877      0             -2.8146593      20.30562       20.305621      4510971.9      4510967      
       241  -26414.879     -26414.879      0             -2.8395995      20.321995      20.321997      4683150.5      4683145.5    
       242  -26655.469     -26655.469      0             -2.8654629      20.338371      20.338372      4843409.1      4843404.1    
       243  -26904.013     -26904.013      0             -2.8921814      20.354747      20.354748      4989962.4      4989957.3    
       244  -27159.787     -27159.787      0             -2.919677       20.371122      20.371123      5121083.4      5121078.2    
       245  -27421.977     -27421.977      0             -2.9478626      20.387497      20.387499      5235141.1      5235135.9    
       246  -27689.693     -27689.693      0             -2.976642       20.403873      20.403874      5330639.3      5330634.2    
       247  -27961.966     -27961.966      0             -3.0059113      20.420248      20.42025       5406255.3      5406250.1    
       248  -28237.765     -28237.765      0             -3.0355598      20.436624      20.436625      5460876.1      5460871      
       249  -28516.008     -28516.008      0             -3.0654708      20.453         20.453001      5493632.9      5493627.9    
       250  -28795.569     -28795.569      0             -3.0955236      20.469375      20.469376      5503929        5503924      
       251  -29075.298     -29075.298      0             -3.1255946      20.48575       20.485752      5491462.6      5491457.8    
       252  -29354.037     -29354.037      0             -3.155559       20.502126      20.502127      5456241.9      5456237.2    
       253  -29630.631     -29630.631      0             -3.1852928      20.518501      20.518503      5398591        5398586.4    
       254  -29903.946     -29903.946      0             -3.2146742      20.534877      20.534878      5319147.6      5319143.2    
       255  -30172.89      -30172.89       0             -3.2435857      20.551253      20.551254      5218851.3      5218847.1    
       256  -30436.418     -30436.418      0             -3.271915       20.567628      20.567629      5098922.8      5098918.7    
       257  -30693.557     -30693.557      0             -3.2995573      20.584003      20.584005      4960835.2      4960831.3    
       258  -30943.407     -30943.407      0             -3.3264163      20.600379      20.60038       4806278.4      4806274.7    
       259  -31185.163     -31185.163      0             -3.352405       20.616754      20.616756      4637118        4637114.5    
       260  -31418.113     -31418.113      0             -3.3774472      20.63313       20.633131      4455350.1      4455346.8    
       261  -31641.65      -31641.65       0             -3.4014774      20.649506      20.649507      4263054.5      4263051.4    
       262  -31855.272     -31855.272      0             -3.4244417      20.665881      20.665882      4062347.5      4062344.6    
       263  -32058.586     -32058.586      0             -3.446298       20.682256      20.682258      3855336.4      3855333.7    
       264  -32251.304     -32251.304      0             -3.4670152      20.698632      20.698633      3644076.7      3644074.2    
       265  -32433.242     -32433.242      0             -3.4865735      20.715007      20.715009      3430534.3      3430532      
       266  -32604.314     -32604.314      0             -3.5049637      20.731383      20.731384      3216553        3216550.9    
       267  -32764.522     -32764.522      0             -3.5221861      20.747758      20.74776       3003827.5      3003825.6    
       268  -32913.956     -32913.956      0             -3.5382503      20.764134      20.764135      2793883.5      2793881.8    
       269  -33052.776     -33052.776      0             -3.5531735      20.780509      20.780511      2588064.2      2588062.6    
       270  -33181.21      -33181.21       0             -3.5669801      20.796885      20.796886      2387522.3      2387520.9    
       271  -33299.508     -33299.508      0             -3.5796971      20.81326       20.813262      2191043        2191041.7    
       272  -33407.861     -33407.861      0             -3.591345       20.829636      20.829637      2000583.1      2000581.9    
       273  -33506.661     -33506.661      0             -3.6019661      20.846011      20.846013      1818690.9      1818689.9    
       274  -33596.346     -33596.346      0             -3.6116072      20.862387      20.862388      1645662.4      1645661.5    
       275  -33677.365     -33677.365      0             -3.6203167      20.878762      20.878764      1481640.1      1481639.4    
       276  -33750.171     -33750.171      0             -3.6281434      20.895138      20.895139      1326632.4      1326631.8    
       277  -33815.219     -33815.219      0             -3.6351361      20.911513      20.911515      1180533        1180532.4    
       278  -33872.954     -33872.954      0             -3.6413425      20.927889      20.92789       1043140.1      1043139.6    
       279  -33923.809     -33923.809      0             -3.6468095      20.944264      20.944266      914175.53      914175.15    
       280  -33968.205     -33968.205      0             -3.6515821      20.96064       20.960641      793302.09      793301.79    
       281  -34006.543     -34006.543      0             -3.6557034      20.977015      20.977017      680139.74      680139.51    
       282  -34039.204     -34039.204      0             -3.6592145      20.993391      20.993392      574280.27      574280.11    
       283  -34066.55      -34066.55       0             -3.6621541      21.009766      21.009768      475300.18      475300.08    
       284  -34088.921     -34088.921      0             -3.664559       21.026142      21.026143      382771.85      382771.8     
       285  -34106.633     -34106.633      0             -3.6664631      21.042517      21.042519      296272.98      296272.99    
       286  -34119.986     -34119.986      0             -3.6678985      21.058893      21.058894      215394.41      215394.46    
       287  -34129.256     -34129.256      0             -3.668895       21.075268      21.07527       139746.27      139746.37    
       288  -34134.7       -34134.7        0             -3.6694802      21.091644      21.091645      68962.801      68962.945    
       289  -34136.558     -34136.558      0             -3.66968        21.108019      21.108021      2705.7527      2705.9366    
       290  -34135.055     -34135.055      0             -3.6695184      21.124395      21.124396     -59333.378     -59333.156    
       291  -34130.399     -34130.399      0             -3.6690179      21.14077       21.140772     -117432.16     -117431.91    
       292  -34122.786     -34122.786      0             -3.6681995      21.157146      21.157147     -171837.01     -171836.72    
       293  -34112.399     -34112.399      0             -3.6670828      21.173521      21.173523     -222763.7      -222763.38    
       294  -34099.411     -34099.411      0             -3.6656867      21.189897      21.189898     -270398.62     -270398.27    
       295  -34083.989     -34083.989      0             -3.6640288      21.206272      21.206274     -314900.53     -314900.15    
       296  -34066.29      -34066.29       0             -3.6621262      21.222648      21.222649     -356402.82     -356402.42    
       297  -34046.465     -34046.465      0             -3.659995       21.239023      21.239025     -395016.09     -395015.66    
       298  -34024.661     -34024.661      0             -3.6576511      21.255399      21.2554       -430830.92     -430830.47    
       299  -34001.021     -34001.021      0             -3.6551098      21.271774      21.271776     -463920.93     -463920.45    
       300  -33975.685     -33975.685      0             -3.6523861      21.28815       21.288152     -494345.77     -494345.27    
       301  -33948.789     -33948.789      0             -3.6494948      21.304525      21.304527     -522154.22     -522153.71    
       302  -33920.469     -33920.469      0             -3.6464504      21.320901      21.320903     -547387.15     -547386.62    
       303  -33890.857     -33890.857      0             -3.6432672      21.337276      21.337278     -570080.36     -570079.82    
       304  -33860.087     -33860.087      0             -3.6399593      21.353652      21.353654     -590267.27     -590266.71    
       305  -33828.287     -33828.287      0             -3.6365409      21.370027      21.370029     -607981.28     -607980.71    
       306  -33795.588     -33795.588      0             -3.6330257      21.386403      21.386405     -623257.96     -623257.38    
       307  -33762.115     -33762.115      0             -3.6294274      21.402778      21.40278      -636136.86     -636136.27    
       308  -33727.995     -33727.995      0             -3.6257595      21.419154      21.419156     -646663.02     -646662.42    
       309  -33693.35      -33693.35       0             -3.6220351      21.435529      21.435531     -654888.16     -654887.55    
       310  -33658.301     -33658.301      0             -3.6182673      21.451905      21.451907     -660871.49     -660870.88    
       311  -33622.964     -33622.964      0             -3.6144686      21.46828       21.468282     -664680.28     -664679.66    
       312  -33587.453     -33587.453      0             -3.6106512      21.484656      21.484658     -666389.97     -666389.36    
       313  -33551.878     -33551.878      0             -3.6068269      21.501031      21.501033     -666084.19     -666083.57    
       314  -33516.344     -33516.344      0             -3.603007       21.517407      21.517409     -663854.32     -663853.71    
       315  -33480.952     -33480.952      0             -3.5992024      21.533782      21.533784     -659798.99     -659798.38    
       316  -33445.796     -33445.796      0             -3.5954231      21.550158      21.55016      -654023.28     -654022.67    
       317  -33410.967     -33410.967      0             -3.5916789      21.566533      21.566535     -646637.81     -646637.21    
       318  -33376.547     -33376.547      0             -3.5879788      21.582909      21.582911     -637757.77     -637757.18    
       319  -33342.615     -33342.615      0             -3.5843311      21.599284      21.599286     -627501.75     -627501.17    
       320  -33309.242     -33309.242      0             -3.5807435      21.61566       21.615662     -615990.69     -615990.11    
       321  -33276.493     -33276.493      0             -3.577223       21.632035      21.632037     -603346.67     -603346.1     
       322  -33244.426     -33244.426      0             -3.5737758      21.648411      21.648413     -589691.86     -589691.31    
       323  -33213.094     -33213.094      0             -3.5704076      21.664786      21.664788     -575147.43     -575146.89    
       324  -33182.543     -33182.543      0             -3.5671233      21.681162      21.681164     -559832.57     -559832.04    
       325  -33152.811     -33152.811      0             -3.5639272      21.697537      21.697539     -543863.59     -543863.08    
       326  -33123.933     -33123.933      0             -3.5608228      21.713913      21.713915     -527353.11     -527352.62    
       327  -33095.937     -33095.937      0             -3.5578132      21.730288      21.73029      -510409.38     -510408.9     
       328  -33068.843     -33068.843      0             -3.5549007      21.746664      21.746666     -493135.68     -493135.22    
       329  -33042.67      -33042.67       0             -3.552087       21.763039      21.763041     -475629.84     -475629.4     
       330  -33017.427     -33017.427      0             -3.5493734      21.779415      21.779417     -457983.91     -457983.49    
       331  -32993.122     -32993.122      0             -3.5467606      21.79579       21.795792     -440283.86     -440283.45    
       332  -32969.757     -32969.757      0             -3.5442489      21.812166      21.812168     -422609.42     -422609.03    
       333  -32947.33      -32947.33       0             -3.541838       21.828541      21.828543     -405034.04     -405033.67    
       334  -32925.835     -32925.835      0             -3.5395273      21.844917      21.844919     -387624.86     -387624.51    
       335  -32905.263     -32905.263      0             -3.5373158      21.861292      21.861294     -370442.8      -370442.46    
       336  -32885.602     -32885.602      0             -3.5352022      21.877668      21.87767      -353542.68     -353542.36    
       337  -32866.836     -32866.836      0             -3.5331849      21.894043      21.894045     -336973.45     -336973.15    
       338  -32848.947     -32848.947      0             -3.5312618      21.910419      21.910421     -320778.38     -320778.1     
       339  -32831.915     -32831.915      0             -3.5294309      21.926794      21.926796     -304995.33     -304995.07    
       340  -32815.719     -32815.719      0             -3.5276898      21.94317       21.943172     -289657.05     -289656.81    
       341  -32800.334     -32800.334      0             -3.5260359      21.959545      21.959547     -274791.5      -274791.27    
       342  -32785.735     -32785.735      0             -3.5244665      21.975921      21.975923     -260422.11     -260421.91    
       343  -32771.896     -32771.896      0             -3.5229788      21.992296      21.992298     -246568.2      -246568.01    
       344  -32758.789     -32758.789      0             -3.5215698      22.008672      22.008674     -233245.19     -233245.02    
       345  -32746.386     -32746.386      0             -3.5202365      22.025047      22.025049     -220465.01     -220464.86    
       346  -32734.659     -32734.659      0             -3.5189758      22.041423      22.041425     -208236.37     -208236.23    
       347  -32723.577     -32723.577      0             -3.5177845      22.057798      22.0578       -196565.06     -196564.95    
       348  -32713.111     -32713.111      0             -3.5166594      22.074174      22.074176     -185454.27     -185454.17    
       349  -32703.231     -32703.231      0             -3.5155973      22.090549      22.090551     -174904.82     -174904.73    
       350  -32693.908     -32693.908      0             -3.5145951      22.106925      22.106927     -164915.45     -164915.38    
       351  -32685.111     -32685.111      0             -3.5136494      22.1233        22.123302     -155483.07     -155483.02    
       352  -32676.811     -32676.811      0             -3.5127572      22.139676      22.139678     -146602.96     -146602.92    
       353  -32668.978     -32668.978      0             -3.5119152      22.156051      22.156053     -138268.99     -138268.97    
       354  -32661.584     -32661.584      0             -3.5111202      22.172427      22.172429     -130473.84     -130473.84    
       355  -32654.598     -32654.598      0             -3.5103693      22.188802      22.188804     -123209.15     -123209.16    
       356  -32647.994     -32647.994      0             -3.5096593      22.205178      22.20518      -116465.67     -116465.69    
       357  -32641.738     -32641.738      0             -3.5089868      22.221553      22.221555     -110472.44     -110472.48    
       358  -32635.79      -32635.79       0             -3.5083474      22.237929      22.237931     -105043.97     -105044.03    
       359  -32630.125     -32630.125      0             -3.5077385      22.254304      22.254306     -100083.57     -100083.64    
       360  -32624.718     -32624.718      0             -3.5071572      22.27068       22.270682     -95580.6       -95580.685    
       361  -32619.543     -32619.543      0             -3.5066009      22.287055      22.287057     -91524.145     -91524.244    
       362  -32614.577     -32614.577      0             -3.5060671      22.303431      22.303433     -87903.088     -87903.201    
       363  -32609.797     -32609.797      0             -3.5055531      22.319806      22.319808     -84706.187     -84706.312    
       364  -32605.178     -32605.178      0             -3.5050567      22.336182      22.336184     -81922.136     -81922.275    
       365  -32600.7       -32600.7        0             -3.5045752      22.352557      22.352559     -79539.629     -79539.781    
       366  -32596.34      -32596.34       0             -3.5041065      22.368933      22.368935     -77547.403     -77547.567    
       367  -32592.076     -32592.076      0             -3.5036482      22.385308      22.38531      -75934.281     -75934.457    
       368  -32587.889     -32587.889      0             -3.5031981      22.401684      22.401686     -74689.21      -74689.398    
       369  -32583.758     -32583.758      0             -3.502754       22.418059      22.418061     -73801.289     -73801.488    
       370  -32579.664     -32579.664      0             -3.5023139      22.434435      22.434437     -73259.796     -73260.007    
       371  -32575.588     -32575.588      0             -3.5018757      22.45081       22.450812     -73054.209     -73054.431    
       372  -32571.511     -32571.511      0             -3.5014374      22.467186      22.467188     -73174.222     -73174.455    
       373  -32567.415     -32567.415      0             -3.5009972      22.483561      22.483563     -73609.76      -73610.003    
       374  -32563.284     -32563.284      0             -3.500553       22.499937      22.499939     -74350.986     -74351.24     
       375  -32559.1       -32559.1        0             -3.5001032      22.516312      22.516314     -75388.314     -75388.578    
       376  -32554.847     -32554.847      0             -3.499646       22.532688      22.53269      -76712.409     -76712.683    
       377  -32550.508     -32550.508      0             -3.4991797      22.549063      22.549065     -78314.193     -78314.477    
       378  -32546.07      -32546.07       0             -3.4987025      22.565439      22.565441     -80184.847     -80185.141    
       379  -32541.515     -32541.515      0             -3.4982129      22.581814      22.581816     -82315.809     -82316.113    
       380  -32536.831     -32536.831      0             -3.4977094      22.59819       22.598192     -84698.774     -84699.086    
       381  -32532.003     -32532.003      0             -3.4971903      22.614565      22.614567     -87325.688     -87326.01     
       382  -32527.017     -32527.017      0             -3.4966543      22.630941      22.630943     -90188.75      -90189.081    
       383  -32521.86      -32521.86       0             -3.4961         22.647317      22.647318     -93280.404     -93280.744    
       384  -32516.519     -32516.519      0             -3.4955258      22.663692      22.663694     -96593.336     -96593.684    
       385  -32510.982     -32510.982      0             -3.4949305      22.680068      22.680069     -100120.46     -100120.82    
       386  -32505.235     -32505.235      0             -3.4943128      22.696443      22.696445     -103854.94     -103855.3     
       387  -32499.269     -32499.269      0             -3.4936714      22.712819      22.71282      -107790.13     -107790.5     
       388  -32493.07      -32493.07       0             -3.4930051      22.729194      22.729196     -111919.63     -111920.01    
       389  -32486.629     -32486.629      0             -3.4923126      22.74557       22.745571     -116237.24     -116237.63    
       390  -32479.934     -32479.934      0             -3.4915929      22.761945      22.761947     -120736.97     -120737.36    
       391  -32472.974     -32472.974      0             -3.4908447      22.778321      22.778322     -125413        -125413.41    
       392  -32465.74      -32465.74       0             -3.4900671      22.794696      22.794698     -130259.74     -130260.15    
       393  -32458.222     -32458.222      0             -3.4892588      22.811072      22.811073     -135271.75     -135272.17    
       394  -32450.409     -32450.409      0             -3.488419       22.827447      22.827449     -140443.78     -140444.21    
       395  -32442.293     -32442.293      0             -3.4875466      22.843823      22.843824     -145770.76     -145771.2     
       396  -32433.865     -32433.865      0             -3.4866405      22.860198      22.8602       -151247.77     -151248.21    
       397  -32425.116     -32425.116      0             -3.4856999      22.876574      22.876575     -156870.04     -156870.49    
       398  -32416.036     -32416.036      0             -3.4847239      22.892949      22.892951     -162632.98     -162633.43    
       399  -32406.619     -32406.619      0             -3.4837115      22.909325      22.909326     -168532.11     -168532.57    
       400  -32396.855     -32396.855      0             -3.4826619      22.9257        22.925702     -174563.11     -174563.58    
       401  -32386.737     -32386.737      0             -3.4815742      22.942076      22.942077     -180721.8      -180722.27    
       402  -32376.257     -32376.257      0             -3.4804477      22.958451      22.958453     -187004.11     -187004.59    
       403  -32365.408     -32365.408      0             -3.4792814      22.974827      22.974828     -193406.1      -193406.59    
       404  -32354.183     -32354.183      0             -3.4780746      22.991202      22.991204     -199923.96     -199924.45    
       405  -32342.574     -32342.574      0             -3.4768267      23.007578      23.007579     -206553.98     -206554.48    
       406  -32330.574     -32330.574      0             -3.4755367      23.023953      23.023955     -213292.56     -213293.06    
       407  -32318.178     -32318.178      0             -3.4742041      23.040329      23.04033      -220136.21     -220136.71    
       408  -32305.378     -32305.378      0             -3.4728281      23.056704      23.056706     -227081.53     -227082.04    
       409  -32292.168     -32292.168      0             -3.4714081      23.07308       23.073081     -234125.23     -234125.74    
       410  -32278.543     -32278.543      0             -3.4699433      23.089455      23.089457     -241264.1      -241264.62    
       411  -32264.495     -32264.495      0             -3.4684332      23.10583       23.105832     -248495.03     -248495.55    
       412  -32250.02      -32250.02       0             -3.4668771      23.122206      23.122208     -255814.98     -255815.51    
       413  -32235.112     -32235.112      0             -3.4652745      23.138582      23.138583     -263221        -263221.54    
       414  -32219.765     -32219.765      0             -3.4636247      23.154957      23.154959     -270710.23     -270710.77    
       415  -32203.973     -32203.973      0             -3.4619271      23.171333      23.171334     -278279.86     -278280.4     
       416  -32187.733     -32187.733      0             -3.4601813      23.187708      23.18771      -285927.17     -285927.71    
       417  -32171.039     -32171.039      0             -3.4583867      23.204083      23.204085     -293649.5      -293650.05    
       418  -32153.885     -32153.885      0             -3.4565426      23.220459      23.220461     -301444.26     -301444.81    
       419  -32136.268     -32136.268      0             -3.4546488      23.236835      23.236836     -309308.93     -309309.49    
       420  -32118.182     -32118.182      0             -3.4527046      23.25321       23.253212     -317241.04     -317241.6     
       421  -32099.623     -32099.623      0             -3.4507095      23.269586      23.269587     -325238.19     -325238.76    
       422  -32080.587     -32080.587      0             -3.4486631      23.285961      23.285963     -333298.03     -333298.61    
       423  -32061.07      -32061.07       0             -3.446565       23.302336      23.302338     -341418.28     -341418.85    
       424  -32041.067     -32041.067      0             -3.4444147      23.318712      23.318714     -349596.68     -349597.26    
       425  -32020.575     -32020.575      0             -3.4422118      23.335088      23.335089     -357831.06     -357831.65    
       426  -31999.589     -31999.589      0             -3.4399558      23.351463      23.351465     -366119.28     -366119.86    
       427  -31978.106     -31978.106      0             -3.4376464      23.367839      23.36784      -374459.24     -374459.83    
       428  -31956.123     -31956.123      0             -3.4352832      23.384214      23.384216     -382848.9      -382849.49    
       429  -31933.635     -31933.635      0             -3.4328658      23.400589      23.400591     -391286.26     -391286.86    
       430  -31910.64      -31910.64       0             -3.4303938      23.416965      23.416967     -399769.37     -399769.97    
       431  -31887.134     -31887.134      0             -3.4278669      23.43334       23.433342     -408296.31     -408296.91    
       432  -31863.113     -31863.113      0             -3.4252847      23.449716      23.449718     -416865.2      -416865.8     
       433  -31838.576     -31838.576      0             -3.4226469      23.466092      23.466093     -425474.21     -425474.82    
       434  -31813.518     -31813.518      0             -3.4199532      23.482467      23.482469     -434121.55     -434122.15    
       435  -31787.938     -31787.938      0             -3.4172033      23.498842      23.498844     -442805.44     -442806.05    
       436  -31761.831     -31761.831      0             -3.4143969      23.515218      23.51522      -451524.18     -451524.79    
       437  -31735.196     -31735.196      0             -3.4115336      23.531593      23.531595     -460276.06     -460276.67    
       438  -31708.03      -31708.03       0             -3.4086132      23.547969      23.547971     -469059.43     -469060.05    
       439  -31680.33      -31680.33       0             -3.4056355      23.564345      23.564346     -477872.66     -477873.28    
       440  -31652.095     -31652.095      0             -3.4026002      23.58072       23.580722     -486714.17     -486714.8     
       441  -31623.32      -31623.32       0             -3.3995069      23.597095      23.597097     -495582.39     -495583.02    
       442  -31594.005     -31594.005      0             -3.3963556      23.613471      23.613473     -504475.79     -504476.42    
       443  -31564.148     -31564.148      0             -3.3931459      23.629846      23.629848     -513392.87     -513393.5     
       444  -31533.745     -31533.745      0             -3.3898776      23.646222      23.646224     -522332.16     -522332.79    
       445  -31502.796     -31502.796      0             -3.3865506      23.662598      23.662599     -531292.2      -531292.83    
       446  -31471.298     -31471.298      0             -3.3831646      23.678973      23.678975     -540271.58     -540272.21    
       447  -31439.25      -31439.25       0             -3.3797193      23.695348      23.69535      -549268.9      -549269.54    
       448  -31406.649     -31406.649      0             -3.3762147      23.711724      23.711726     -558282.8      -558283.44    
       449  -31373.494     -31373.494      0             -3.3726506      23.728099      23.728101     -567311.93     -567312.57    
       450  -31339.783     -31339.783      0             -3.3690267      23.744475      23.744477     -576354.97     -576355.62    
       451  -31305.516     -31305.516      0             -3.365343       23.760851      23.760852     -585410.64     -585411.28    
       452  -31270.69      -31270.69       0             -3.3615992      23.777226      23.777228     -594477.65     -594478.3     
       453  -31235.304     -31235.304      0             -3.3577952      23.793601      23.793603     -603554.76     -603555.41    
       454  -31199.357     -31199.357      0             -3.3539309      23.809977      23.809979     -612640.73     -612641.38    
       455  -31162.847     -31162.847      0             -3.3500061      23.826352      23.826354     -621734.37     -621735.02    
       456  -31125.774     -31125.774      0             -3.3460207      23.842728      23.84273      -630834.48     -630835.13    
       457  -31088.136     -31088.136      0             -3.3419747      23.859103      23.859105     -639939.9      -639940.55    
       458  -31049.933     -31049.933      0             -3.3378678      23.875479      23.875481     -649049.48     -649050.13    
       459  -31011.163     -31011.163      0             -3.3337         23.891854      23.891856     -658162.09     -658162.74    
       460  -30971.825     -30971.825      0             -3.3294712      23.90823       23.908232     -667276.62     -667277.28    
       461  -30931.919     -30931.919      0             -3.3251813      23.924605      23.924607     -676391.99     -676392.65    
       462  -30891.444     -30891.444      0             -3.3208302      23.940981      23.940983     -685507.12     -685507.77    
       463  -30850.399     -30850.399      0             -3.3164179      23.957356      23.957358     -694620.95     -694621.6     
       464  -30808.783     -30808.783      0             -3.3119442      23.973732      23.973734     -703732.44     -703733.1     
       465  -30766.597     -30766.597      0             -3.3074092      23.990107      23.990109     -712840.57     -712841.23    
       466  -30723.839     -30723.839      0             -3.3028127      24.006483      24.006485     -721944.33     -721944.99    
       467  -30680.509     -30680.509      0             -3.2981547      24.022858      24.02286      -731042.73     -731043.39    
       468  -30636.607     -30636.607      0             -3.2934352      24.039234      24.039236     -740134.79     -740135.45    
       469  -30592.132     -30592.132      0             -3.2886542      24.055609      24.055611     -749219.54     -749220.2     
       470  -30547.084     -30547.084      0             -3.2838115      24.071985      24.071987     -758296.05     -758296.71    
       471  -30501.463     -30501.463      0             -3.2789073      24.08836       24.088362     -767363.36     -767364.02    
       472  -30455.268     -30455.268      0             -3.2739413      24.104736      24.104738     -776420.55     -776421.22    
       473  -30408.5       -30408.5        0             -3.2689138      24.121111      24.121113     -785466.73     -785467.39    
       474  -30361.159     -30361.159      0             -3.2638246      24.137487      24.137489     -794500.98     -794501.64    
       475  -30313.244     -30313.244      0             -3.2586737      24.153862      24.153864     -803522.42     -803523.08    
       476  -30264.756     -30264.756      0             -3.2534612      24.170238      24.17024      -812530.18     -812530.84    
       477  -30215.694     -30215.694      0             -3.2481871      24.186613      24.186615     -821523.39     -821524.05    
       478  -30166.059     -30166.059      0             -3.2428514      24.202989      24.202991     -830501.2      -830501.86    
       479  -30115.852     -30115.852      0             -3.2374541      24.219364      24.219366     -839462.76     -839463.42    
       480  -30065.071     -30065.071      0             -3.2319952      24.23574       24.235742     -848407.25     -848407.91    
       481  -30013.719     -30013.719      0             -3.2264748      24.252115      24.252117     -857333.83     -857334.49    
       482  -29961.794     -29961.794      0             -3.2208929      24.268491      24.268493     -866241.7      -866242.36    
       483  -29909.298     -29909.298      0             -3.2152495      24.284866      24.284868     -875130.05     -875130.71    
       484  -29856.231     -29856.231      0             -3.2095448      24.301242      24.301244     -883998.08     -883998.74    
       485  -29802.593     -29802.593      0             -3.2037787      24.317617      24.317619     -892845        -892845.66    
       486  -29748.385     -29748.385      0             -3.1979514      24.333993      24.333995     -901670.03     -901670.69    
       487  -29693.608     -29693.608      0             -3.1920629      24.350368      24.35037      -910472.41     -910473.06    
       488  -29638.263     -29638.263      0             -3.1861133      24.366744      24.366746     -919251.35     -919252.01    
       489  -29582.349     -29582.349      0             -3.1801026      24.383119      24.383121     -928006.1      -928006.76    
       490  -29525.869     -29525.869      0             -3.1740309      24.399495      24.399497     -936735.92     -936736.57    
       491  -29468.822     -29468.822      0             -3.1678984      24.41587       24.415872     -945440.04     -945440.7     
       492  -29411.21      -29411.21       0             -3.161705       24.432246      24.432248     -954117.74     -954118.4     
       493  -29353.033     -29353.033      0             -3.155451       24.448621      24.448623     -962768.28     -962768.93    
       494  -29294.292     -29294.292      0             -3.1491364      24.464997      24.464999     -971390.92     -971391.57    
       495  -29234.989     -29234.989      0             -3.1427614      24.481372      24.481374     -979984.95     -979985.6     
       496  -29175.125     -29175.125      0             -3.136326       24.497748      24.49775      -988549.63     -988550.29    
       497  -29114.7       -29114.7        0             -3.1298303      24.514123      24.514125     -997084.27     -997084.92    
       498  -29053.716     -29053.716      0             -3.1232745      24.530499      24.530501     -1005588.1     -1005588.8    
       499  -28992.175     -28992.175      0             -3.1166588      24.546874      24.546876     -1014060.6     -1014061.2    
       500  -28930.076     -28930.076      0             -3.1099832      24.56325       24.563252     -1022500.8     -1022501.4    
       501  -28867.422     -28867.422      0             -3.1032478      24.579625      24.579627     -1030908.2     -1030908.8    
       502  -28804.214     -28804.214      0             -3.096453       24.596001      24.596003     -1039282       -1039282.6    
       503  -28740.453     -28740.453      0             -3.0895987      24.612376      24.612378     -1047621.5     -1047622.2    
       504  -28676.141     -28676.141      0             -3.0826851      24.628752      24.628754     -1055926.2     -1055926.8    
       505  -28611.279     -28611.279      0             -3.0757125      24.645127      24.645129     -1064195.1     -1064195.8    
       506  -28545.868     -28545.868      0             -3.0686809      24.661503      24.661505     -1072427.8     -1072428.5    
       507  -28479.911     -28479.911      0             -3.0615905      24.677878      24.67788      -1080623.5     -1080624.1    
       508  -28413.409     -28413.409      0             -3.0544415      24.694254      24.694256     -1088781.5     -1088782.2    
       509  -28346.364     -28346.364      0             -3.0472341      24.710629      24.710631     -1096901.2     -1096901.9    
       510  -28278.777     -28278.777      0             -3.0399685      24.727005      24.727007     -1104981.9     -1104982.5    
       511  -28210.65      -28210.65       0             -3.0326449      24.74338       24.743382     -1113022.9     -1113023.5    
       512  -28141.985     -28141.985      0             -3.0252634      24.759756      24.759758     -1121023.5     -1121024.2    
       513  -28072.783     -28072.783      0             -3.0178242      24.776131      24.776133     -1128983.2     -1128983.8    
       514  -28003.048     -28003.048      0             -3.0103276      24.792507      24.792509     -1136901.1     -1136901.7    
       515  -27932.779     -27932.779      0             -3.0027738      24.808882      24.808884     -1144776.7     -1144777.3    
       516  -27861.981     -27861.981      0             -2.9951629      24.825258      24.82526      -1152609.3     -1152609.9    
       517  -27790.654     -27790.654      0             -2.9874953      24.841633      24.841635     -1160398.2     -1160398.8    
       518  -27718.8       -27718.8        0             -2.979771       24.858009      24.858011     -1168142.8     -1168143.4    
       519  -27646.423     -27646.423      0             -2.9719904      24.874384      24.874386     -1175842.4     -1175843.1    
       520  -27573.523     -27573.523      0             -2.9641537      24.89076       24.890762     -1183496.4     -1183497.1    
       521  -27500.103     -27500.103      0             -2.9562611      24.907135      24.907137     -1191104.1     -1191104.8    
       522  -27426.166     -27426.166      0             -2.9483129      24.923511      24.923513     -1198664.9     -1198665.5    
       523  -27351.714     -27351.714      0             -2.9403093      24.939886      24.939888     -1206178.1     -1206178.7    
       524  -27276.749     -27276.749      0             -2.9322505      24.956262      24.956264     -1213643       -1213643.6    
       525  -27201.273     -27201.273      0             -2.9241369      24.972637      24.972639     -1221059       -1221059.6    
       526  -27125.29      -27125.29       0             -2.9159686      24.989013      24.989015     -1228425.5     -1228426.1    
       527  -27048.8       -27048.8        0             -2.907746       25.005388      25.00539      -1235741.8     -1235742.4    
       528  -26971.808     -26971.808      0             -2.8994694      25.021764      25.021766     -1243007.3     -1243007.9    
       529  -26894.315     -26894.315      0             -2.8911389      25.038139      25.038141     -1250221.3     -1250221.9    
       530  -26816.325     -26816.325      0             -2.8827549      25.054515      25.054517     -1257383.2     -1257383.8    
       531  -26737.84      -26737.84       0             -2.8743177      25.07089       25.070892     -1264492.3     -1264492.9    
       532  -26658.862     -26658.862      0             -2.8658276      25.087266      25.087268     -1271548       -1271548.6    
       533  -26579.394     -26579.394      0             -2.8572849      25.103641      25.103643     -1278549.7     -1278550.3    
       534  -26499.44      -26499.44       0             -2.8486898      25.120017      25.120019     -1285496.7     -1285497.3    
       535  -26419.002     -26419.002      0             -2.8400427      25.136392      25.136394     -1292388.4     -1292389      
       536  -26338.082     -26338.082      0             -2.8313439      25.152768      25.15277      -1299224.1     -1299224.7    
       537  -26256.685     -26256.685      0             -2.8225937      25.169143      25.169145     -1306003.3     -1306003.8    
       538  -26174.813     -26174.813      0             -2.8137924      25.185519      25.185521     -1312725.2     -1312725.8    
       539  -26092.469     -26092.469      0             -2.8049404      25.201894      25.201896     -1319389.3     -1319389.8    
       540  -26009.656     -26009.656      0             -2.796038       25.21827       25.218272     -1325994.9     -1325995.4    
       541  -25926.377     -25926.377      0             -2.7870855      25.234645      25.234647     -1332541.4     -1332541.9    
       542  -25842.635     -25842.635      0             -2.7780833      25.251021      25.251023     -1339028.1     -1339028.7    
       543  -25758.434     -25758.434      0             -2.7690317      25.267396      25.267398     -1345454.5     -1345455.1    
       544  -25673.777     -25673.777      0             -2.7599311      25.283772      25.283774     -1351820       -1351820.5    
       545  -25588.668     -25588.668      0             -2.7507818      25.300147      25.300149     -1358123.8     -1358124.4    
       546  -25503.109     -25503.109      0             -2.7415842      25.316523      25.316525     -1364365.4     -1364366      
       547  -25417.104     -25417.104      0             -2.7323387      25.332898      25.3329       -1370544.3     -1370544.8    
       548  -25330.657     -25330.657      0             -2.7230456      25.349274      25.349276     -1376659.6     -1376660.2    
       549  -25243.771     -25243.771      0             -2.7137054      25.365649      25.365651     -1382710.9     -1382711.5    
       550  -25156.449     -25156.449      0             -2.7043183      25.382025      25.382027     -1388697.6     -1388698.1    
       551  -25068.696     -25068.696      0             -2.6948848      25.3984        25.398402     -1394619       -1394619.5    
       552  -24980.515     -24980.515      0             -2.6854053      25.414776      25.414778     -1400474.5     -1400475      
       553  -24891.909     -24891.909      0             -2.6758802      25.431151      25.431153     -1406263.5     -1406264.1    
       554  -24802.882     -24802.882      0             -2.6663099      25.447527      25.447529     -1411985.5     -1411986.1    
       555  -24713.439     -24713.439      0             -2.6566947      25.463902      25.463904     -1417639.9     -1417640.4    
       556  -24623.583     -24623.583      0             -2.6470351      25.480278      25.48028      -1423226       -1423226.5    
       557  -24533.317     -24533.317      0             -2.6373316      25.496653      25.496655     -1428743.2     -1428743.7    
       558  -24442.646     -24442.646      0             -2.6275845      25.513029      25.513031     -1434191.1     -1434191.6    
       559  -24351.574     -24351.574      0             -2.6177942      25.529404      25.529406     -1439568.9     -1439569.4    
       560  -24260.105     -24260.105      0             -2.6079613      25.54578       25.545782     -1444876.2     -1444876.7    
       561  -24168.243     -24168.243      0             -2.5980861      25.562155      25.562157     -1450112.4     -1450112.8    
       562  -24075.991     -24075.991      0             -2.5881691      25.578531      25.578533     -1455276.8     -1455277.3    
       563  -23983.355     -23983.355      0             -2.5782106      25.594906      25.594908     -1460368.9     -1460369.4    
       564  -23890.338     -23890.338      0             -2.5682113      25.611282      25.611284     -1465388.2     -1465388.7    
       565  -23796.944     -23796.944      0             -2.5581715      25.627657      25.627659     -1470334.2     -1470334.7    
       566  -23703.178     -23703.178      0             -2.5480917      25.644033      25.644035     -1475206.2     -1475206.6    
       567  -23609.045     -23609.045      0             -2.5379723      25.660408      25.66041      -1480003.7     -1480004.1    
       568  -23514.547     -23514.547      0             -2.5278139      25.676784      25.676786     -1484726.2     -1484726.6    
       569  -23419.691     -23419.691      0             -2.5176168      25.693159      25.693161     -1489373.1     -1489373.5    
       570  -23324.48      -23324.48       0             -2.5073816      25.709535      25.709537     -1493943.9     -1493944.4    
       571  -23228.919     -23228.919      0             -2.4971088      25.72591       25.725912     -1498438.1     -1498438.6    
       572  -23133.013     -23133.013      0             -2.4867989      25.742286      25.742288     -1502855.2     -1502855.6    
       573  -23036.765     -23036.765      0             -2.4764523      25.758662      25.758663     -1507194.6     -1507195.1    
       574  -22940.182     -22940.182      0             -2.4660695      25.775037      25.775039     -1511455.9     -1511456.3    
       575  -22843.266     -22843.266      0             -2.4556511      25.791413      25.791414     -1515638.5     -1515638.9    
       576  -22746.023     -22746.023      0             -2.4451975      25.807788      25.80779      -1519741.9     -1519742.4    
       577  -22648.459     -22648.459      0             -2.4347093      25.824164      25.824165     -1523765.7     -1523766.2    
       578  -22550.577     -22550.577      0             -2.424187       25.840539      25.840541     -1527709.4     -1527709.8    
       579  -22452.382     -22452.382      0             -2.413631       25.856915      25.856916     -1531572.5     -1531572.9    
[...]
      1858  -374.91772     -374.91772      0             -0.040303655    46.801179      46.801182     -478.17066     -478.1706     
      1859  -374.86222     -374.86222      0             -0.040297688    46.817554      46.817558     -476.94196     -476.9419     
      1860  -374.80684     -374.80684      0             -0.040291735    46.83393       46.833933     -475.71485     -475.71479    
      1861  -374.75159     -374.75159      0             -0.040285796    46.850305      46.850309     -474.48934     -474.48929    
      1862  -374.69646     -374.69646      0             -0.040279869    46.866681      46.866684     -473.26545     -473.26539    
      1863  -374.64145     -374.64145      0             -0.040273956    46.883057      46.88306      -472.04317     -472.04311    
      1864  -374.58657     -374.58657      0             -0.040268056    46.899432      46.899435     -470.82252     -470.82246    
      1865  -374.53181     -374.53181      0             -0.040262169    46.915807      46.915811     -469.60351     -469.60345    
      1866  -374.47717     -374.47717      0             -0.040256295    46.932183      46.932186     -468.38614     -468.38608    
      1867  -374.42265     -374.42265      0             -0.040250435    46.948558      46.948562     -467.17043     -467.17038    
      1868  -374.36826     -374.36826      0             -0.040244588    46.964934      46.964937     -465.95639     -465.95633    
      1869  -374.31399     -374.31399      0             -0.040238754    46.98131       46.981313     -464.74402     -464.74397    
      1870  -374.25984     -374.25984      0             -0.040232933    46.997685      46.997688     -463.53334     -463.53328    
      1871  -374.20581     -374.20581      0             -0.040227125    47.01406       47.014064     -462.32435     -462.32429    
      1872  -374.15191     -374.15191      0             -0.04022133     47.030436      47.030439     -461.11706     -461.117      
      1873  -374.09813     -374.09813      0             -0.040215549    47.046811      47.046815     -459.91148     -459.91142    
      1874  -374.04447     -374.04447      0             -0.040209781    47.063187      47.06319      -458.70762     -458.70756    
      1875  -373.99093     -373.99093      0             -0.040204025    47.079563      47.079566     -457.50548     -457.50542    
      1876  -373.93752     -373.93752      0             -0.040198283    47.095938      47.095941     -456.30508     -456.30502    
      1877  -373.88422     -373.88422      0             -0.040192554    47.112313      47.112317     -455.10642     -455.10636    
      1878  -373.83105     -373.83105      0             -0.040186838    47.128689      47.128692     -453.90951     -453.90945    
      1879  -373.778       -373.778        0             -0.040181135    47.145064      47.145068     -452.71435     -452.7143     
      1880  -373.72507     -373.72507      0             -0.040175445    47.16144       47.161443     -451.52097     -451.52091    
      1881  -373.67226     -373.67226      0             -0.040169768    47.177816      47.177819     -450.32936     -450.3293     
      1882  -373.61958     -373.61958      0             -0.040164105    47.194191      47.194194     -449.13952     -449.13947    
      1883  -373.56701     -373.56701      0             -0.040158454    47.210566      47.21057      -447.95148     -447.95142    
      1884  -373.51457     -373.51457      0             -0.040152816    47.226942      47.226945     -446.76524     -446.76518    
      1885  -373.46224     -373.46224      0             -0.040147191    47.243317      47.243321     -445.58079     -445.58073    
      1886  -373.41004     -373.41004      0             -0.040141579    47.259693      47.259696     -444.39816     -444.3981     
      1887  -373.35796     -373.35796      0             -0.04013598     47.276069      47.276072     -443.21734     -443.21729    
      1888  -373.30599     -373.30599      0             -0.040130394    47.292444      47.292447     -442.03835     -442.03829    
      1889  -373.25415     -373.25415      0             -0.040124821    47.308819      47.308823     -440.86119     -440.86113    
      1890  -373.20243     -373.20243      0             -0.040119261    47.325195      47.325198     -439.68587     -439.68581    
      1891  -373.15083     -373.15083      0             -0.040113714    47.34157       47.341574     -438.51239     -438.51233    
      1892  -373.09935     -373.09935      0             -0.04010818     47.357946      47.357949     -437.34076     -437.34071    
      1893  -373.04799     -373.04799      0             -0.040102658    47.374322      47.374325     -436.171       -436.17094    
      1894  -372.99674     -372.99674      0             -0.04009715     47.390697      47.3907       -435.00309     -435.00303    
      1895  -372.94562     -372.94562      0             -0.040091654    47.407072      47.407076     -433.83705     -433.837      
      1896  -372.89462     -372.89462      0             -0.040086172    47.423448      47.423451     -432.6729      -432.67284    
      1897  -372.84374     -372.84374      0             -0.040080702    47.439823      47.439827     -431.51062     -431.51056    
      1898  -372.79297     -372.79297      0             -0.040075244    47.456199      47.456202     -430.35023     -430.35017    
      1899  -372.74233     -372.74233      0             -0.0400698      47.472575      47.472578     -429.19174     -429.19168    
      1900  -372.6918      -372.6918       0             -0.040064369    47.48895       47.488953     -428.03514     -428.03508    
      1901  -372.64139     -372.64139      0             -0.04005895     47.505325      47.505329     -426.88045     -426.8804     
      1902  -372.5911      -372.5911       0             -0.040053544    47.521701      47.521704     -425.72768     -425.72762    
      1903  -372.54093     -372.54093      0             -0.04004815     47.538076      47.53808      -424.57682     -424.57676    
      1904  -372.49088     -372.49088      0             -0.04004277     47.554452      47.554455     -423.42788     -423.42782    
      1905  -372.44095     -372.44095      0             -0.040037402    47.570828      47.570831     -422.28087     -422.28081    
      1906  -372.39114     -372.39114      0             -0.040032047    47.587203      47.587206     -421.13579     -421.13573    
      1907  -372.34144     -372.34144      0             -0.040026705    47.603578      47.603582     -419.99265     -419.9926     
      1908  -372.29186     -372.29186      0             -0.040021375    47.619954      47.619957     -418.85146     -418.8514     
      1909  -372.2424      -372.2424       0             -0.040016058    47.636329      47.636333     -417.71221     -417.71215    
      1910  -372.19305     -372.19305      0             -0.040010753    47.652705      47.652708     -416.57492     -416.57486    
      1911  -372.14383     -372.14383      0             -0.040005462    47.66908       47.669084     -415.43958     -415.43952    
      1912  -372.09472     -372.09472      0             -0.040000182    47.685456      47.685459     -414.30621     -414.30615    
      1913  -372.04573     -372.04573      0             -0.039994916    47.701831      47.701835     -413.1748      -413.17475    
      1914  -371.99685     -371.99685      0             -0.039989662    47.718207      47.71821      -412.04537     -412.04531    
      1915  -371.9481      -371.9481       0             -0.03998442     47.734582      47.734586     -410.91791     -410.91786    
      1916  -371.89946     -371.89946      0             -0.039979192    47.750958      47.750961     -409.79244     -409.79238    
      1917  -371.85093     -371.85093      0             -0.039973975    47.767333      47.767337     -408.66895     -408.66889    
      1918  -371.80253     -371.80253      0             -0.039968771    47.783709      47.783712     -407.54745     -407.54739    
      1919  -371.75423     -371.75423      0             -0.03996358     47.800084      47.800088     -406.42794     -406.42788    
      1920  -371.70606     -371.70606      0             -0.039958401    47.81646       47.816463     -405.31044     -405.31038    
      1921  -371.658       -371.658        0             -0.039953235    47.832835      47.832839     -404.19493     -404.19487    
      1922  -371.61006     -371.61006      0             -0.039948081    47.849211      47.849214     -403.08143     -403.08137    
      1923  -371.56223     -371.56223      0             -0.03994294     47.865586      47.86559      -401.96994     -401.96988    
      1924  -371.51452     -371.51452      0             -0.039937811    47.881962      47.881965     -400.86046     -400.86041    
      1925  -371.46692     -371.46692      0             -0.039932694    47.898337      47.898341     -399.75301     -399.75295    
      1926  -371.41944     -371.41944      0             -0.03992759     47.914713      47.914716     -398.64757     -398.64751    
      1927  -371.37208     -371.37208      0             -0.039922498    47.931088      47.931092     -397.54416     -397.5441     
      1928  -371.32483     -371.32483      0             -0.039917419    47.947464      47.947467     -396.44278     -396.44272    
      1929  -371.27769     -371.27769      0             -0.039912352    47.963839      47.963843     -395.34342     -395.34337    
      1930  -371.23067     -371.23067      0             -0.039907297    47.980215      47.980218     -394.24611     -394.24605    
      1931  -371.18376     -371.18376      0             -0.039902255    47.99659       47.996594     -393.15083     -393.15077    
      1932  -371.13697     -371.13697      0             -0.039897225    48.012966      48.012969     -392.0576      -392.05754    
      1933  -371.0903      -371.0903       0             -0.039892207    48.029341      48.029345     -390.96641     -390.96635    
      1934  -371.04373     -371.04373      0             -0.039887201    48.045717      48.04572      -389.87726     -389.87721    
      1935  -370.99728     -370.99728      0             -0.039882208    48.062092      48.062096     -388.79017     -388.79011    
      1936  -370.95095     -370.95095      0             -0.039877227    48.078468      48.078471     -387.70514     -387.70508    
      1937  -370.90472     -370.90472      0             -0.039872258    48.094843      48.094847     -386.62216     -386.6221     
      1938  -370.85862     -370.85862      0             -0.039867301    48.111219      48.111222     -385.54124     -385.54118    
      1939  -370.81262     -370.81262      0             -0.039862357    48.127594      48.127598     -384.46238     -384.46232    
      1940  -370.76674     -370.76674      0             -0.039857424    48.14397       48.143973     -383.38559     -383.38553    
      1941  -370.72097     -370.72097      0             -0.039852504    48.160345      48.160349     -382.31087     -382.31081    
      1942  -370.67531     -370.67531      0             -0.039847596    48.176721      48.176724     -381.23821     -381.23816    
      1943  -370.62977     -370.62977      0             -0.0398427      48.193096      48.1931       -380.16764     -380.16758    
      1944  -370.58434     -370.58434      0             -0.039837816    48.209472      48.209475     -379.09913     -379.09907    
      1945  -370.53902     -370.53902      0             -0.039832945    48.225847      48.225851     -378.03271     -378.03265    
      1946  -370.49381     -370.49381      0             -0.039828085    48.242223      48.242226     -376.96836     -376.9683     
      1947  -370.44872     -370.44872      0             -0.039823237    48.258598      48.258602     -375.9061      -375.90604    
      1948  -370.40374     -370.40374      0             -0.039818402    48.274974      48.274977     -374.84592     -374.84586    
      1949  -370.35887     -370.35887      0             -0.039813578    48.291349      48.291353     -373.78783     -373.78777    
      1950  -370.31411     -370.31411      0             -0.039808766    48.307725      48.307728     -372.73183     -372.73177    
      1951  -370.26946     -370.26946      0             -0.039803967    48.3241        48.324104     -371.67792     -371.67786    
      1952  -370.22492     -370.22492      0             -0.039799179    48.340476      48.340479     -370.6261      -370.62605    
      1953  -370.1805      -370.1805       0             -0.039794403    48.356852      48.356855     -369.57638     -369.57632    
      1954  -370.13618     -370.13618      0             -0.039789639    48.373227      48.37323      -368.52876     -368.5287     
      1955  -370.09198     -370.09198      0             -0.039784888    48.389603      48.389606     -367.48323     -367.48317    
      1956  -370.04788     -370.04788      0             -0.039780147    48.405978      48.405981     -366.43981     -366.43975    
      1957  -370.0039      -370.0039       0             -0.039775419    48.422354      48.422357     -365.39848     -365.39842    
      1958  -369.96003     -369.96003      0             -0.039770703    48.438729      48.438732     -364.35926     -364.3592     
      1959  -369.91626     -369.91626      0             -0.039765998    48.455105      48.455108     -363.32215     -363.32209    
      1960  -369.87261     -369.87261      0             -0.039761306    48.47148       48.471483     -362.28714     -362.28708    
      1961  -369.82907     -369.82907      0             -0.039756625    48.487856      48.487859     -361.25424     -361.25418    
      1962  -369.78563     -369.78563      0             -0.039751956    48.504231      48.504234     -360.22345     -360.22339    
      1963  -369.74231     -369.74231      0             -0.039747298    48.520607      48.52061      -359.19477     -359.19471    
      1964  -369.69909     -369.69909      0             -0.039742653    48.536982      48.536985     -358.1682      -358.16814    
      1965  -369.65599     -369.65599      0             -0.039738019    48.553358      48.553361     -357.14375     -357.14369    
      1966  -369.61299     -369.61299      0             -0.039733397    48.569733      48.569736     -356.12141     -356.12135    
      1967  -369.5701      -369.5701       0             -0.039728786    48.586109      48.586112     -355.10118     -355.10113    
      1968  -369.52732     -369.52732      0             -0.039724187    48.602484      48.602487     -354.08308     -354.08302    
      1969  -369.48465     -369.48465      0             -0.0397196      48.61886       48.618863     -353.06709     -353.06703    
      1970  -369.44209     -369.44209      0             -0.039715024    48.635235      48.635238     -352.05322     -352.05316    
      1971  -369.39963     -369.39963      0             -0.03971046     48.651611      48.651614     -351.04147     -351.04141    
      1972  -369.35728     -369.35728      0             -0.039705908    48.667986      48.667989     -350.03184     -350.03178    
      1973  -369.31504     -369.31504      0             -0.039701367    48.684362      48.684365     -349.02433     -349.02428    
      1974  -369.27291     -369.27291      0             -0.039696838    48.700737      48.70074      -348.01895     -348.01889    
      1975  -369.23088     -369.23088      0             -0.03969232     48.717113      48.717116     -347.01568     -347.01563    
      1976  -369.18897     -369.18897      0             -0.039687814    48.733488      48.733491     -346.01454     -346.01449    
      1977  -369.14715     -369.14715      0             -0.039683319    48.749864      48.749867     -345.01553     -345.01547    
      1978  -369.10545     -369.10545      0             -0.039678836    48.766239      48.766242     -344.01864     -344.01858    
      1979  -369.06385     -369.06385      0             -0.039674364    48.782615      48.782618     -343.02388     -343.02382    
      1980  -369.02236     -369.02236      0             -0.039669904    48.79899       48.798993     -342.03124     -342.03118    
      1981  -368.98097     -368.98097      0             -0.039665455    48.815366      48.815369     -341.04073     -341.04067    
      1982  -368.93969     -368.93969      0             -0.039661017    48.831741      48.831744     -340.05234     -340.05229    
      1983  -368.89852     -368.89852      0             -0.039656591    48.848117      48.84812      -339.06608     -339.06603    
      1984  -368.85745     -368.85745      0             -0.039652176    48.864492      48.864495     -338.08195     -338.0819     
      1985  -368.81649     -368.81649      0             -0.039647773    48.880868      48.880871     -337.09995     -337.0999     
      1986  -368.77563     -368.77563      0             -0.039643381    48.897243      48.897246     -336.12008     -336.12002    
      1987  -368.73488     -368.73488      0             -0.039639       48.913619      48.913622     -335.14233     -335.14227    
      1988  -368.69424     -368.69424      0             -0.03963463     48.929994      48.929997     -334.16671     -334.16666    
      1989  -368.65369     -368.65369      0             -0.039630272    48.94637       48.946373     -333.19322     -333.19317    
      1990  -368.61326     -368.61326      0             -0.039625925    48.962745      48.962748     -332.22186     -332.22181    
      1991  -368.57292     -368.57292      0             -0.039621589    48.979121      48.979124     -331.25263     -331.25257    
      1992  -368.53269     -368.53269      0             -0.039617265    48.995496      48.995499     -330.28552     -330.28547    
      1993  -368.49257     -368.49257      0             -0.039612951    49.011872      49.011875     -329.32055     -329.32049    
      1994  -368.45255     -368.45255      0             -0.039608649    49.028247      49.02825      -328.3577      -328.35764    
      1995  -368.41263     -368.41263      0             -0.039604358    49.044623      49.044626     -327.39698     -327.39692    
      1996  -368.37282     -368.37282      0             -0.039600078    49.060998      49.061001     -326.43839     -326.43833    
      1997  -368.33311     -368.33311      0             -0.039595809    49.077374      49.077377     -325.48192     -325.48187    
      1998  -368.2935      -368.2935       0             -0.039591551    49.093749      49.093752     -324.52758     -324.52753    
      1999  -368.254       -368.254        0             -0.039587305    49.110125      49.110128     -323.57537     -323.57532    
      2000  -368.2146      -368.2146       0             -0.039583069    49.1265        49.126503     -322.62529     -322.62523    
Loop time of 8.55458 on 64 procs for 2000 steps with 400 atoms

Performance: 20.200 ns/day, 1.188 hours/ns, 233.793 timesteps/s
2108.8% CPU use with 1 MPI tasks x 64 OpenMP threads

MPI task timing breakdown:
Section |  min time  |  avg time  |  max time  |%varavg| %total
---------------------------------------------------------------
Pair    | 8.3523     | 8.3523     | 8.3523     |   0.0 | 97.63
Neigh   | 0.064782   | 0.064782   | 0.064782   |   0.0 |  0.76
Comm    | 0.0061175  | 0.0061175  | 0.0061175  |   0.0 |  0.07
Output  | 0.063059   | 0.063059   | 0.063059   |   0.0 |  0.74
Modify  | 0.012143   | 0.012143   | 0.012143   |   0.0 |  0.14
Other   |            | 0.05621    |            |       |  0.66

Nlocal:            400 ave         400 max         400 min
Histogram: 1 0 0 0 0 0 0 0 0 0
Nghost:            175 ave         175 max         175 min
Histogram: 1 0 0 0 0 0 0 0 0 0
Neighs:           2616 ave        2616 max        2616 min
Histogram: 1 0 0 0 0 0 0 0 0 0

Total # of neighbors = 2616
Ave neighs/atom = 6.54
Neighbor list builds = 111
Dangerous builds = 0

Total wall time: 0:00:08
