LAMMPS (23 Jun 2022 - Update 2)
  using 64 OpenMP thread(s) per MPI task
################################################################################
# GRAPHENE: POTENTIAL PROFILE
################################################################################
#
# Input script for lammps to calculate the potential energy in function of the
# distance between carbon atoms in a graphene layer.
#
# When using this script, make sure that lammps is installed with the USER-REAXC
# and the MANYBODY packages.
#
# Date: 28/03/2016
# Author: Jeroen Mulkers
# Mail: jeroen.mulkers@uantwerpen.be
#
################################################################################


# UNITS
# 'real' units are needed when using reax/c. A useful energy conversion factor
# is defined.
units        real
variable     fenergy equal 0.043 # Kcal/mole -> eV

# GRAPHENE SHEET
# The atom positions and the simulation box size will be read from a data file.
# Reactive force fields (reaxFF) are used to describe the interaction between
# the carbon atoms.(The pair_style reax is deprecated. so we use the modern
# reax/c implementation)
dimension    2
boundary     p p p
atom_style   charge
read_data    silicene.dat
Reading data file ...
  orthogonal box = (0 0 -10) to (65.502 37.8176 10)
  1 by 1 by 1 MPI processor grid
  reading atoms ...
  400 atoms
  read_data CPU = 0.003 seconds
pair_style   reax/c NULL checkqeq no
pair_coeff   * * ffield.reax.CHONSSi.2 Si

# OUTPUT
# Calculate the average total energy per atom and the distance 'a' between
# carbon atoms in two ways (should give the same size)
variable     energy equal etotal/atoms*${fenergy}
variable     energy equal etotal/atoms*0.043
variable     a1 equal lx/3
variable     a2 equal ly/sqrt(3)
thermo_style custom step etotal pe ke v_energy v_a1 v_a2 pxx pyy
dump dumpID all xyz 50 dump.xyz

# DEFORMATION
fix          1 all deform 1 x erate 0.001 y erate 0.001 remap x
thermo       1
run          2000

CITE-CITE-CITE-CITE-CITE-CITE-CITE-CITE-CITE-CITE-CITE-CITE-CITE

Your simulation uses code contributions which should be cited:

- pair reaxff command:

@Article{Aktulga12,
 author = {H. M. Aktulga, J. C. Fogarty, S. A. Pandit, A. Y. Grama},
 title = {Parallel reactive molecular dynamics: Numerical methods and algorithmic techniques},
 journal = {Parallel Computing},
 year =    2012,
 volume =  38,
 pages =   {245--259}
}

CITE-CITE-CITE-CITE-CITE-CITE-CITE-CITE-CITE-CITE-CITE-CITE-CITE

WARNING: No fixes with time integration, atoms won't move (src/verlet.cpp:60)
Neighbor list info ...
  update every 1 steps, delay 10 steps, check yes
  max neighbors/atom: 2000, page size: 100000
  master list distance cutoff = 12
  ghost atom cutoff = 12
  binsize = 6, bins = 11 7 4
  1 neighbor lists, perpetual/occasional/extra = 1 0 0
  (1) pair reax/c, perpetual
      attributes: half, newton off, ghost
      pair build: half/bin/newtoff/ghost
      stencil: full/ghost/bin/2d
      bin: standard
Per MPI rank memory allocation (min/avg/max) = 72.01 | 72.01 | 72.01 Mbytes
   Step         TotEng         PotEng         KinEng        v_energy         v_a1           v_a2           Pxx            Pyy      
         0  -32918.876     -32918.876      0             -3.5387792      21.834         21.834002     -382442.46     -382442.11    
         1  -32918.876     -32918.876      0             -3.5387792      21.855834      21.855836     -381678.72     -381678.37    
         2  -32892.056     -32892.056      0             -3.535896       21.877668      21.87767      -358962.4      -358962.07    
         3  -32866.836     -32866.836      0             -3.5331849      21.899502      21.899504     -336805.49     -336805.19    
         4  -32843.176     -32843.176      0             -3.5306414      21.921336      21.921338     -315312.78     -315312.5     
         5  -32821.026     -32821.026      0             -3.5282603      21.94317       21.943172     -294571.96     -294571.71    
         6  -32800.334     -32800.334      0             -3.5260359      21.965004      21.965006     -274654.94     -274654.71    
         7  -32781.039     -32781.039      0             -3.5239617      21.986838      21.98684      -255619.06     -255618.86    
         8  -32763.078     -32763.078      0             -3.5220309      22.008672      22.008674     -237508.54     -237508.37    
         9  -32746.386     -32746.386      0             -3.5202365      22.030506      22.030508     -220355.77     -220355.62    
        10  -32730.894     -32730.894      0             -3.5185711      22.05234       22.052342     -204182.68     -204182.55    
        11  -32716.533     -32716.533      0             -3.5170273      22.074174      22.074176     -189001.98     -189001.88    
        12  -32703.231     -32703.231      0             -3.5155973      22.096008      22.09601      -174818.41     -174818.33    
        13  -32690.919     -32690.919      0             -3.5142737      22.117842      22.117844     -161629.83     -161629.77    
        14  -32679.524     -32679.524      0             -3.5130489      22.139676      22.139678     -149428.27     -149428.23    
        15  -32668.978     -32668.978      0             -3.5119152      22.16151       22.161512     -138200.89     -138200.87    
        16  -32659.211     -32659.211      0             -3.5108652      22.183344      22.183346     -127930.8      -127930.8     
        17  -32650.155     -32650.155      0             -3.5098916      22.205178      22.20518      -118597.85     -118597.88    
        18  -32641.738     -32641.738      0             -3.5089868      22.227012      22.227014     -110418.18     -110418.23    
        19  -32633.872     -32633.872      0             -3.5081412      22.248846      22.248848     -103288.31     -103288.38    
        20  -32626.493     -32626.493      0             -3.507348       22.27068       22.270682     -96983.874     -96983.955    
        21  -32619.543     -32619.543      0             -3.5066009      22.292514      22.292516     -91479.33      -91479.429    
        22  -32612.964     -32612.964      0             -3.5058937      22.314348      22.31435      -86748.428     -86748.544    
        23  -32606.701     -32606.701      0             -3.5052204      22.336182      22.336184     -82764.512     -82764.647    
        24  -32600.7       -32600.7        0             -3.5045752      22.358016      22.358018     -79500.796     -79500.948    
        25  -32594.909     -32594.909      0             -3.5039527      22.37985       22.379852     -76930.581     -76930.749    
        26  -32589.278     -32589.278      0             -3.5033473      22.401684      22.401686     -75027.439     -75027.623    
        27  -32583.758     -32583.758      0             -3.502754       22.423518      22.42352      -73765.363     -73765.562    
        28  -32578.304     -32578.304      0             -3.5021677      22.445352      22.445354     -73118.881     -73119.095    
        29  -32572.871     -32572.871      0             -3.5015836      22.467186      22.467188     -73063.152     -73063.381    
        30  -32567.415     -32567.415      0             -3.5009972      22.48902       22.489022     -73574.031     -73574.275    
        31  -32561.896     -32561.896      0             -3.5004038      22.510854      22.510856     -74628.123     -74628.38     
        32  -32556.273     -32556.273      0             -3.4997994      22.532688      22.53269      -76202.813     -76203.084    
        33  -32550.508     -32550.508      0             -3.4991797      22.554522      22.554524     -78276.291     -78276.576    
        34  -32544.565     -32544.565      0             -3.4985408      22.576356      22.576358     -80827.561     -80827.858    
        35  -32538.408     -32538.408      0             -3.4978789      22.59819       22.598192     -83836.439     -83836.748    
        36  -32532.003     -32532.003      0             -3.4971903      22.620024      22.620026     -87283.547     -87283.869    
        37  -32525.318     -32525.318      0             -3.4964717      22.641858      22.64186      -91150.304     -91150.637    
        38  -32518.321     -32518.321      0             -3.4957195      22.663692      22.663694     -95418.901     -95419.247    
        39  -32510.982     -32510.982      0             -3.4949305      22.685526      22.685528     -100072.29     -100072.64    
        40  -32503.272     -32503.272      0             -3.4941017      22.70736       22.707362     -105094.14     -105094.51    
        41  -32495.163     -32495.163      0             -3.49323        22.729194      22.729196     -110468.85     -110469.23    
        42  -32486.629     -32486.629      0             -3.4923126      22.751028      22.75103      -116181.48     -116181.86    
        43  -32477.644     -32477.644      0             -3.4913467      22.772862      22.772864     -122217.73     -122218.12    
        44  -32468.183     -32468.183      0             -3.4903296      22.794696      22.794698     -128563.94     -128564.35    
        45  -32458.222     -32458.222      0             -3.4892588      22.81653       22.816532     -135207.03     -135207.45    
        46  -32447.738     -32447.738      0             -3.4881319      22.838364      22.838366     -142134.51     -142134.94    
        47  -32436.71      -32436.71       0             -3.4869463      22.860198      22.8602       -149334.39     -149334.82    
        48  -32425.116     -32425.116      0             -3.4856999      22.882032      22.882034     -156795.21     -156795.66    
        49  -32412.935     -32412.935      0             -3.4843905      22.903866      22.903868     -164506        -164506.45    
        50  -32400.149     -32400.149      0             -3.483016       22.9257        22.925702     -172456.23     -172456.7     
        51  -32386.737     -32386.737      0             -3.4815742      22.947534      22.947536     -180635.83     -180636.3     
        52  -32372.682     -32372.682      0             -3.4800634      22.969368      22.96937      -189035.12     -189035.6     
        53  -32357.967     -32357.967      0             -3.4784814      22.991202      22.991204     -197644.82     -197645.3     
        54  -32342.574     -32342.574      0             -3.4768267      23.013036      23.013038     -206456.01     -206456.5     
        55  -32326.487     -32326.487      0             -3.4750973      23.03487       23.034872     -215460.12     -215460.62    
        56  -32309.69      -32309.69       0             -3.4732917      23.056704      23.056706     -224648.92     -224649.43    
        57  -32292.168     -32292.168      0             -3.4714081      23.078538      23.07854      -234014.49     -234015.01    
        58  -32273.907     -32273.907      0             -3.469445       23.100372      23.100374     -243549.19     -243549.71    
        59  -32254.893     -32254.893      0             -3.467401       23.122206      23.122208     -253245.68     -253246.21    
        60  -32235.112     -32235.112      0             -3.4652745      23.14404       23.144042     -263096.86     -263097.39    
        61  -32214.55      -32214.55       0             -3.4630642      23.165874      23.165876     -273095.9      -273096.44    
        62  -32193.197     -32193.197      0             -3.4607687      23.187708      23.18771      -283236.2      -283236.75    
        63  -32171.039     -32171.039      0             -3.4583867      23.209542      23.209544     -293511.39     -293511.94    
        64  -32148.064     -32148.064      0             -3.4559169      23.231376      23.231378     -303915.3      -303915.86    
        65  -32124.263     -32124.263      0             -3.4533583      23.25321       23.253212     -314441.98     -314442.54    
        66  -32099.623     -32099.623      0             -3.4507095      23.275044      23.275046     -325085.66     -325086.22    
        67  -32074.135     -32074.135      0             -3.4479695      23.296878      23.29688      -335840.75     -335841.32    
        68  -32047.789     -32047.789      0             -3.4451373      23.318712      23.318714     -346701.85     -346702.43    
        69  -32020.575     -32020.575      0             -3.4422118      23.340546      23.340548     -357663.72     -357664.3     
        70  -31992.484     -31992.484      0             -3.439192       23.36238       23.362382     -368721.26     -368721.84    
        71  -31963.507     -31963.507      0             -3.436077       23.384214      23.384216     -379869.54     -379870.13    
        72  -31933.635     -31933.635      0             -3.4328658      23.406048      23.40605      -391103.78     -391104.38    
        73  -31902.861     -31902.861      0             -3.4295576      23.427882      23.427884     -402419.32     -402419.92    
        74  -31871.178     -31871.178      0             -3.4261516      23.449716      23.449718     -413811.64     -413812.24    
        75  -31838.576     -31838.576      0             -3.4226469      23.47155       23.471552     -425276.34     -425276.95    
        76  -31805.05      -31805.05       0             -3.4190429      23.493384      23.493386     -436809.15     -436809.76    
        77  -31770.592     -31770.592      0             -3.4153386      23.515218      23.51522      -448405.92     -448406.53    
        78  -31735.196     -31735.196      0             -3.4115336      23.537052      23.537054     -460062.59     -460063.21    
        79  -31698.856     -31698.856      0             -3.407627       23.558886      23.558888     -471775.24     -471775.86    
        80  -31661.566     -31661.566      0             -3.4036184      23.58072       23.580722     -483540.02     -483540.64    
        81  -31623.32      -31623.32       0             -3.3995069      23.602554      23.602556     -495353.19     -495353.82    
        82  -31584.113     -31584.113      0             -3.3952922      23.624388      23.62439      -507211.13     -507211.76    
        83  -31543.94      -31543.94       0             -3.3909736      23.646222      23.646224     -519110.27     -519110.9     
        84  -31502.796     -31502.796      0             -3.3865506      23.668056      23.668058     -531047.16     -531047.8     
        85  -31460.677     -31460.677      0             -3.3820227      23.68989       23.689892     -543018.43     -543019.07    
        86  -31417.577     -31417.577      0             -3.3773895      23.711724      23.711726     -555020.78     -555021.42    
        87  -31373.494     -31373.494      0             -3.3726506      23.733558      23.73356      -567051.01     -567051.65    
        88  -31328.423     -31328.423      0             -3.3678055      23.755392      23.755394     -579105.97     -579106.61    
        89  -31282.361     -31282.361      0             -3.3628538      23.777226      23.777228     -591182.6      -591183.25    
        90  -31235.304     -31235.304      0             -3.3577952      23.79906       23.799062     -603277.93     -603278.58    
        91  -31187.25      -31187.25       0             -3.3526293      23.820894      23.820896     -615389.03     -615389.68    
        92  -31138.195     -31138.195      0             -3.3473559      23.842728      23.84273      -627513.04     -627513.69    
        93  -31088.136     -31088.136      0             -3.3419747      23.864562      23.864564     -639647.19     -639647.84    
        94  -31037.072     -31037.072      0             -3.3364853      23.886396      23.886398     -651788.74     -651789.39    
        95  -30985.001     -30985.001      0             -3.3308876      23.90823       23.908232     -663935.03     -663935.68    
        96  -30931.919     -30931.919      0             -3.3251813      23.930064      23.930066     -676083.45     -676084.11    
        97  -30877.825     -30877.825      0             -3.3193662      23.951898      23.9519       -688231.46     -688232.12    
        98  -30822.719     -30822.719      0             -3.3134422      23.973732      23.973734     -700376.56     -700377.21    
        99  -30766.597     -30766.597      0             -3.3074092      23.995566      23.995568     -712516.29     -712516.95    
       100  -30709.459     -30709.459      0             -3.3012669      24.0174        24.017402     -724648.28     -724648.94    
       101  -30651.305     -30651.305      0             -3.2950152      24.039234      24.039236     -736770.16     -736770.82    
       102  -30592.132     -30592.132      0             -3.2886542      24.061068      24.06107      -748879.65     -748880.31    
       103  -30531.941     -30531.941      0             -3.2821836      24.082902      24.082904     -760974.48     -760975.14    
       104  -30470.73      -30470.73       0             -3.2756035      24.104736      24.104738     -773052.44     -773053.1     
       105  -30408.5       -30408.5        0             -3.2689138      24.12657       24.126572     -785111.35     -785112.01    
       106  -30345.251     -30345.251      0             -3.2621145      24.148404      24.148406     -797149.1      -797149.76    
       107  -30280.982     -30280.982      0             -3.2552056      24.170238      24.17024      -809163.57     -809164.23    
       108  -30215.694     -30215.694      0             -3.2481871      24.192072      24.192074     -821152.71     -821153.37    
       109  -30149.387     -30149.387      0             -3.2410591      24.213906      24.213908     -833114.49     -833115.15    
       110  -30082.062     -30082.062      0             -3.2338216      24.23574       24.235742     -845046.92     -845047.58    
       111  -30013.719     -30013.719      0             -3.2264748      24.257574      24.257576     -856948.04     -856948.7     
       112  -29944.359     -29944.359      0             -3.2190186      24.279408      24.27941      -868815.91     -868816.57    
       113  -29873.983     -29873.983      0             -3.2114532      24.301242      24.301244     -880648.62     -880649.28    
       114  -29802.593     -29802.593      0             -3.2037787      24.323076      24.323078     -892444.31     -892444.97    
       115  -29730.19      -29730.19       0             -3.1959954      24.34491       24.344912     -904201.11     -904201.76    
       116  -29656.775     -29656.775      0             -3.1881033      24.366744      24.366746     -915917.19     -915917.85    
       117  -29582.349     -29582.349      0             -3.1801026      24.388578      24.38858      -927590.75     -927591.41    
       118  -29506.916     -29506.916      0             -3.1719935      24.410412      24.410414     -939220        -939220.65    
       119  -29430.476     -29430.476      0             -3.1637762      24.432246      24.432248     -950803.17     -950803.83    
       120  -29353.033     -29353.033      0             -3.155451       24.45408       24.454082     -962338.52     -962339.17    
       121  -29274.587     -29274.587      0             -3.1470181      24.475914      24.475916     -973824.31     -973824.96    
       122  -29195.142     -29195.142      0             -3.1384778      24.497748      24.49775      -985258.83     -985259.48    
       123  -29114.7       -29114.7        0             -3.1298303      24.519582      24.519584     -996640.38     -996641.03    
       124  -29033.264     -29033.264      0             -3.1210759      24.541416      24.541418     -1007967.3     -1007967.9    
       125  -28950.837     -28950.837      0             -3.112215       24.56325       24.563252     -1019237.9     -1019238.5    
       126  -28867.422     -28867.422      0             -3.1032478      24.585084      24.585086     -1030450.4     -1030451.1    
       127  -28783.021     -28783.021      0             -3.0941748      24.606918      24.60692      -1041603.4     -1041604.1    
       128  -28697.639     -28697.639      0             -3.0849962      24.628752      24.628754     -1052695.1     -1052695.7    
       129  -28611.279     -28611.279      0             -3.0757125      24.650586      24.650588     -1063723.9     -1063724.5    
       130  -28523.943     -28523.943      0             -3.0663239      24.67242       24.672422     -1074688.2     -1074688.8    
       131  -28435.637     -28435.637      0             -3.056831       24.694254      24.694256     -1085586.3     -1085587      
       132  -28346.364     -28346.364      0             -3.0472341      24.716088      24.71609      -1096416.8     -1096417.4    
       133  -28256.128     -28256.128      0             -3.0375337      24.737922      24.737924     -1107177.9     -1107178.5    
       134  -28164.933     -28164.933      0             -3.0277303      24.759756      24.759758     -1117868.1     -1117868.8    
       135  -28072.783     -28072.783      0             -3.0178242      24.78159       24.781592     -1128485.9     -1128486.5    
       136  -27979.684     -27979.684      0             -3.007816       24.803424      24.803426     -1139029.5     -1139030.2    
       137  -27885.639     -27885.639      0             -2.9977062      24.825258      24.82526      -1149497.6     -1149498.2    
       138  -27790.654     -27790.654      0             -2.9874953      24.847092      24.847094     -1159888.4     -1159889.1    
       139  -27694.732     -27694.732      0             -2.9771837      24.868926      24.868928     -1170200.5     -1170201.1    
       140  -27597.881     -27597.881      0             -2.9667722      24.89076       24.890762     -1180432.3     -1180432.9    
       141  -27500.103     -27500.103      0             -2.9562611      24.912594      24.912596     -1190582.2     -1190582.9    
       142  -27401.406     -27401.406      0             -2.9456512      24.934428      24.93443      -1200648.8     -1200649.4    
       143  -27301.794     -27301.794      0             -2.9349429      24.956262      24.956264     -1210630.3     -1210630.9    
       144  -27201.273     -27201.273      0             -2.9241369      24.978096      24.978098     -1220525.4     -1220526      
       145  -27099.849     -27099.849      0             -2.9132338      24.99993       24.999932     -1230332.5     -1230333.1    
       146  -26997.528     -26997.528      0             -2.9022342      25.021764      25.021766     -1240050       -1240050.6    
       147  -26894.315     -26894.315      0             -2.8911389      25.043598      25.0436       -1249676.4     -1249677      
       148  -26790.218     -26790.218      0             -2.8799484      25.065432      25.065434     -1259210.2     -1259210.8    
       149  -26685.242     -26685.242      0             -2.8686635      25.087266      25.087268     -1268649.9     -1268650.4    
       150  -26579.394     -26579.394      0             -2.8572849      25.1091        25.109102     -1277993.9     -1277994.5    
       151  -26472.681     -26472.681      0             -2.8458132      25.130934      25.130936     -1287240.7     -1287241.3    
       152  -26365.109     -26365.109      0             -2.8342492      25.152768      25.15277      -1296388.9     -1296389.5    
       153  -26256.685     -26256.685      0             -2.8225937      25.174602      25.174604     -1305437       -1305437.5    
       154  -26147.417     -26147.417      0             -2.8108473      25.196436      25.196438     -1314383.3     -1314383.9    
       155  -26037.312     -26037.312      0             -2.799011       25.21827       25.218272     -1323226.5     -1323227.1    
       156  -25926.377     -25926.377      0             -2.7870855      25.240104      25.240106     -1331965.1     -1331965.6    
       157  -25814.619     -25814.619      0             -2.7750716      25.261938      25.26194      -1340597.5     -1340598      
       158  -25702.047     -25702.047      0             -2.76297        25.283772      25.283774     -1349122.3     -1349122.8    
       159  -25588.668     -25588.668      0             -2.7507818      25.305606      25.305608     -1357538       -1357538.5    
       160  -25474.49      -25474.49       0             -2.7385077      25.32744       25.327442     -1365843.1     -1365843.7    
       161  -25359.522     -25359.522      0             -2.7261486      25.349274      25.349276     -1374036.3     -1374036.8    
       162  -25243.771     -25243.771      0             -2.7137054      25.371108      25.37111      -1382116       -1382116.6    
       163  -25127.246     -25127.246      0             -2.701179       25.392942      25.392944     -1390080.8     -1390081.4    
       164  -25009.956     -25009.956      0             -2.6885703      25.414776      25.414778     -1397929.3     -1397929.9    
       165  -24891.909     -24891.909      0             -2.6758802      25.43661       25.436612     -1405660.1     -1405660.6    
       166  -24773.114     -24773.114      0             -2.6631098      25.458444      25.458446     -1413271.6     -1413272.2    
       167  -24653.58      -24653.58       0             -2.6502599      25.480278      25.48028      -1420762.6     -1420763.2    
       168  -24533.317     -24533.317      0             -2.6373316      25.502112      25.502114     -1428131.7     -1428132.2    
       169  -24412.333     -24412.333      0             -2.6243258      25.523946      25.523948     -1435377.4     -1435377.9    
       170  -24290.639     -24290.639      0             -2.6112437      25.54578       25.545782     -1442498.3     -1442498.8    
       171  -24168.243     -24168.243      0             -2.5980861      25.567614      25.567616     -1449493.2     -1449493.7    
       172  -24045.155     -24045.155      0             -2.5848542      25.589448      25.58945      -1456360.7     -1456361.2    
       173  -23921.385     -23921.385      0             -2.5715489      25.611282      25.611284     -1463099.4     -1463099.9    
       174  -23796.944     -23796.944      0             -2.5581715      25.633116      25.633118     -1469708       -1469708.5    
       175  -23671.841     -23671.841      0             -2.5447229      25.65495       25.654952     -1476185.3     -1476185.7    
       176  -23546.087     -23546.087      0             -2.5312043      25.676784      25.676786     -1482529.8     -1482530.3    
       177  -23419.691     -23419.691      0             -2.5176168      25.698618      25.69862      -1488740.4     -1488740.9    
       178  -23292.665     -23292.665      0             -2.5039615      25.720452      25.720454     -1494815.8     -1494816.3    
       179  -23165.02      -23165.02       0             -2.4902396      25.742286      25.742288     -1500754.8     -1500755.2    
       180  -23036.765     -23036.765      0             -2.4764523      25.76412       25.764122     -1506556       -1506556.5    
       181  -22907.913     -22907.913      0             -2.4626006      25.785954      25.785956     -1512218.4     -1512218.9    
       182  -22778.474     -22778.474      0             -2.4486859      25.807788      25.80779      -1517740.7     -1517741.2    
       183  -22648.459     -22648.459      0             -2.4347093      25.829622      25.829624     -1523121.8     -1523122.2    
       184  -22517.879     -22517.879      0             -2.420672       25.851456      25.851458     -1528360.4     -1528360.9    
       185  -22386.747     -22386.747      0             -2.4065753      25.87329       25.873292     -1533455.6     -1533456      
       186  -22255.074     -22255.074      0             -2.3924205      25.895124      25.895126     -1538406.1     -1538406.5    
       187  -22122.871     -22122.871      0             -2.3782087      25.916958      25.91696      -1543210.9     -1543211.3    
       188  -21990.151     -21990.151      0             -2.3639412      25.938792      25.938794     -1547869       -1547869.4    
       189  -21856.925     -21856.925      0             -2.3496194      25.960626      25.960628     -1552379.2     -1552379.6    
       190  -21723.205     -21723.205      0             -2.3352446      25.98246       25.982462     -1556740.6     -1556741      
       191  -21589.004     -21589.004      0             -2.3208179      26.004294      26.004296     -1560952.2     -1560952.6    
       192  -21454.334     -21454.334      0             -2.3063409      26.026128      26.02613      -1565013       -1565013.4    
       193  -21319.208     -21319.208      0             -2.2918148      26.047962      26.047964     -1568922.1     -1568922.5    
       194  -21183.637     -21183.637      0             -2.277241       26.069796      26.069798     -1572678.6     -1572678.9    
       195  -21047.635     -21047.635      0             -2.2626208      26.09163       26.091632     -1576281.5     -1576281.9    
       196  -20911.214     -20911.214      0             -2.2479556      26.113464      26.113466     -1579730.1     -1579730.4    
       197  -20774.388     -20774.388      0             -2.2332467      26.135298      26.1353       -1583023.4     -1583023.8    
       198  -20637.169     -20637.169      0             -2.2184957      26.157132      26.157134     -1586160.8     -1586161.1    
       199  -20499.571     -20499.571      0             -2.2037039      26.178966      26.178968     -1589141.3     -1589141.7    
       200  -20361.606     -20361.606      0             -2.1888726      26.2008        26.200802     -1591964.4     -1591964.7    
       201  -20223.288     -20223.288      0             -2.1740035      26.222634      26.222636     -1594629.2     -1594629.5    
       202  -20084.63      -20084.63       0             -2.1590977      26.244468      26.24447      -1597135.1     -1597135.4    
       203  -19945.646     -19945.646      0             -2.144157       26.266302      26.266304     -1599481.4     -1599481.7    
       204  -19806.349     -19806.349      0             -2.1291825      26.288136      26.288138     -1601667.6     -1601667.9    
       205  -19666.753     -19666.753      0             -2.114176       26.30997       26.309972     -1603693       -1603693.3    
       206  -19526.872     -19526.872      0             -2.0991388      26.331804      26.331806     -1605557.1     -1605557.4    
       207  -19386.72      -19386.72       0             -2.0840723      26.353638      26.35364      -1607259.4     -1607259.7    
       208  -19246.309     -19246.309      0             -2.0689782      26.375472      26.375474     -1608799.4     -1608799.7    
       209  -19105.655     -19105.655      0             -2.0538579      26.397306      26.397308     -1610176.7     -1610176.9    
       210  -18964.772     -18964.772      0             -2.0387129      26.41914       26.419142     -1611390.8     -1611391.1    
       211  -18823.672     -18823.672      0             -2.0235448      26.440974      26.440976     -1612441.4     -1612441.7    
       212  -18682.372     -18682.372      0             -2.008355       26.462808      26.46281      -1613328.2     -1613328.4    
       213  -18540.884     -18540.884      0             -1.9931451      26.484642      26.484644     -1614050.8     -1614051      
       214  -18399.224     -18399.224      0             -1.9779166      26.506476      26.506478     -1614609       -1614609.2    
       215  -18257.405     -18257.405      0             -1.9626711      26.52831       26.528312     -1615002.6     -1615002.8    
       216  -18115.443     -18115.443      0             -1.9474101      26.550144      26.550146     -1615231.3     -1615231.5    
       217  -17973.35      -17973.35       0             -1.9321352      26.571978      26.57198      -1615295.2     -1615295.4    
       218  -17831.143     -17831.143      0             -1.9168479      26.593812      26.593814     -1615193.9     -1615194.1    
       219  -17688.835     -17688.835      0             -1.9015498      26.615646      26.615648     -1614927.6     -1614927.7    
       220  -17546.441     -17546.441      0             -1.8862424      26.63748       26.637482     -1614496.1     -1614496.2    
       221  -17403.976     -17403.976      0             -1.8709274      26.659314      26.659316     -1613899.4     -1613899.6    
       222  -17261.454     -17261.454      0             -1.8556063      26.681148      26.68115      -1613137.7     -1613137.9    
       223  -17118.89      -17118.89       0             -1.8402807      26.702982      26.702984     -1612211.1     -1612211.2    
       224  -16976.299     -16976.299      0             -1.8249522      26.724816      26.724818     -1611119.6     -1611119.7    
       225  -16833.696     -16833.696      0             -1.8096223      26.74665       26.746652     -1609863.5     -1609863.6    
       226  -16691.095     -16691.095      0             -1.7942927      26.768484      26.768486     -1608442.9     -1608443      
       227  -16548.51      -16548.51       0             -1.7789649      26.790318      26.79032      -1606858.2     -1606858.3    
       228  -16405.958     -16405.958      0             -1.7636405      26.812152      26.812154     -1605109.7     -1605109.8    
       229  -16263.452     -16263.452      0             -1.7483211      26.833986      26.833988     -1603197.7     -1603197.8    
       230  -16121.007     -16121.007      0             -1.7330083      26.85582       26.855822     -1601122.6     -1601122.7    
       231  -15978.639     -15978.639      0             -1.7177037      26.877654      26.877656     -1598884.8     -1598884.9    
       232  -15836.361     -15836.361      0             -1.7024089      26.899488      26.89949      -1596484.9     -1596485      
       233  -15694.19      -15694.19       0             -1.6871254      26.921322      26.921324     -1593923.3     -1593923.4    
       234  -15552.138     -15552.138      0             -1.6718548      26.943156      26.943158     -1591200.7     -1591200.8    
       235  -15410.222     -15410.222      0             -1.6565988      26.96499       26.964992     -1588317.7     -1588317.7    
       236  -15268.455     -15268.455      0             -1.6413589      26.986824      26.986826     -1585274.8     -1585274.8    
       237  -15126.853     -15126.853      0             -1.6261367      27.008658      27.00866      -1582072.8     -1582072.9    
       238  -14985.431     -14985.431      0             -1.6109338      27.030492      27.030494     -1578712.5     -1578712.6    
       239  -14844.202     -14844.202      0             -1.5957517      27.052326      27.052328     -1575194.7     -1575194.7    
       240  -14703.181     -14703.181      0             -1.580592       27.07416       27.074162     -1571520.1     -1571520.1    
       241  -14562.384     -14562.384      0             -1.5654562      27.095994      27.095996     -1567689.6     -1567689.7    
       242  -14421.823     -14421.823      0             -1.550346       27.117828      27.11783      -1563704.3     -1563704.3    
       243  -14281.515     -14281.515      0             -1.5352629      27.139662      27.139664     -1559564.9     -1559564.9    
       244  -14141.473     -14141.473      0             -1.5202083      27.161496      27.161498     -1555272.7     -1555272.7    
       245  -14001.712     -14001.712      0             -1.505184       27.18333       27.183332     -1550828.5     -1550828.5    
       246  -13862.245     -13862.245      0             -1.4901913      27.205164      27.205166     -1546233.5     -1546233.5    
       247  -13723.087     -13723.087      0             -1.4752319      27.226998      27.227        -1541488.8     -1541488.8    
       248  -13584.253     -13584.253      0             -1.4603072      27.248832      27.248834     -1536595.6     -1536595.6    
       249  -13445.756     -13445.756      0             -1.4454187      27.270666      27.270668     -1531555.2     -1531555.1    
       250  -13307.61      -13307.61       0             -1.430568       27.2925        27.292502     -1526368.7     -1526368.6    
       251  -13169.829     -13169.829      0             -1.4157566      27.314334      27.314336     -1521037.5     -1521037.5    
       252  -13032.427     -13032.427      0             -1.4009859      27.336168      27.33617      -1515563       -1515562.9    
       253  -12895.417     -12895.417      0             -1.3862573      27.358002      27.358004     -1509946.4     -1509946.4    
       254  -12758.814     -12758.814      0             -1.3715725      27.379836      27.379838     -1504189.3     -1504189.3    
       255  -12622.63      -12622.63       0             -1.3569327      27.40167       27.401672     -1498293.2     -1498293.1    
       256  -12486.879     -12486.879      0             -1.3423395      27.423504      27.423506     -1492259.4     -1492259.3    
       257  -12351.575     -12351.575      0             -1.3277943      27.445338      27.44534      -1486089.6     -1486089.5    
       258  -12216.73      -12216.73       0             -1.3132985      27.467172      27.467174     -1479785.3     -1479785.2    
       259  -12082.358     -12082.358      0             -1.2988535      27.489006      27.489008     -1473348.3     -1473348.1    
       260  -11948.472     -11948.472      0             -1.2844607      27.51084       27.510842     -1466780       -1466779.9    
       261  -11815.084     -11815.084      0             -1.2701215      27.532674      27.532676     -1460082.2     -1460082.1    
       262  -11682.207     -11682.207      0             -1.2558372      27.554508      27.55451      -1453256.7     -1453256.6    
       263  -11549.853     -11549.853      0             -1.2416092      27.576342      27.576344     -1446305.3     -1446305.1    
       264  -11418.036     -11418.036      0             -1.2274388      27.598176      27.598178     -1439229.6     -1439229.5    
       265  -11286.767     -11286.767      0             -1.2133274      27.62001       27.620012     -1432031.6     -1432031.4    
       266  -11156.058     -11156.058      0             -1.1992762      27.641844      27.641846     -1424713.1     -1424713      
       267  -11025.922     -11025.922      0             -1.1852866      27.663678      27.66368      -1417276.1     -1417275.9    
       268  -10896.37      -10896.37       0             -1.1713598      27.685512      27.685514     -1409722.4     -1409722.2    
       269  -10767.414     -10767.414      0             -1.157497       27.707346      27.707348     -1402054       -1402053.8    
       270  -10639.066     -10639.066      0             -1.1436996      27.72918       27.729182     -1394273       -1394272.8    
       271  -10511.337     -10511.337      0             -1.1299687      27.751014      27.751016     -1386381.3     -1386381.1    
       272  -10384.237     -10384.237      0             -1.1163055      27.772848      27.77285      -1378381       -1378380.8    
       273  -10257.779     -10257.779      0             -1.1027113      27.794682      27.794684     -1370274.2     -1370274      
       274  -10131.973     -10131.973      0             -1.0891871      27.816516      27.816518     -1362063       -1362062.8    
       275  -10006.83      -10006.83       0             -1.0757342      27.83835       27.838352     -1353749.6     -1353749.4    
       276  -9882.3602     -9882.3602      0             -1.0623537      27.860184      27.860186     -1345336       -1345335.8    
       277  -9758.5738     -9758.5738      0             -1.0490467      27.882018      27.88202      -1336824.5     -1336824.3    
       278  -9635.4813     -9635.4813      0             -1.0358142      27.903852      27.903854     -1328217.4     -1328217.1    
       279  -9513.0925     -9513.0925      0             -1.0226574      27.925686      27.925688     -1319516.7     -1319516.5    
       280  -9391.4173     -9391.4173      0             -1.0095774      27.94752       27.947522     -1310724.8     -1310724.6    
       281  -9270.4652     -9270.4652      0             -0.99657501     27.969354      27.969356     -1301844       -1301843.8    
       282  -9150.2458     -9150.2458      0             -0.98365142     27.991188      27.99119      -1292876.5     -1292876.3    
       283  -9030.7681     -9030.7681      0             -0.97080757     28.013022      28.013024     -1283824.7     -1283824.5    
       284  -8912.0413     -8912.0413      0             -0.95804444     28.034856      28.034858     -1274690.9     -1274690.6    
       285  -8794.0741     -8794.0741      0             -0.94536296     28.05669       28.056692     -1265477.4     -1265477.1    
       286  -8676.8751     -8676.8751      0             -0.93276408     28.078524      28.078526     -1256186.6     -1256186.3    
       287  -8560.4529     -8560.4529      0             -0.92024869     28.100358      28.10036      -1246820.9     -1246820.6    
       288  -8444.8156     -8444.8156      0             -0.90781767     28.122192      28.122194     -1237382.7     -1237382.4    
       289  -8329.9711     -8329.9711      0             -0.8954719      28.144026      28.144028     -1227874.3     -1227874      
       290  -8215.9274     -8215.9274      0             -0.88321219     28.16586       28.165862     -1218298.2     -1218297.9    
       291  -8102.6919     -8102.6919      0             -0.87103938     28.187694      28.187696     -1208656.8     -1208656.5    
       292  -7990.2721     -7990.2721      0             -0.85895425     28.209528      28.20953      -1198952.6     -1198952.3    
       293  -7878.6751     -7878.6751      0             -0.84695758     28.231362      28.231364     -1189187.9     -1189187.6    
       294  -7767.9079     -7767.9079      0             -0.8350501      28.253196      28.253198     -1179365.3     -1179365      
       295  -7657.9771     -7657.9771      0             -0.82323254     28.27503       28.275032     -1169487.1     -1169486.8    
       296  -7548.8894     -7548.8894      0             -0.81150561     28.296864      28.296866     -1159555.9     -1159555.6    
       297  -7440.6509     -7440.6509      0             -0.79986997     28.318698      28.3187       -1149574.1     -1149573.8    
       298  -7333.2678     -7333.2678      0             -0.78832629     28.340532      28.340534     -1139544.2     -1139543.8    
       299  -7226.7459     -7226.7459      0             -0.77687518     28.362366      28.362368     -1129468.6     -1129468.2    
       300  -7121.0908     -7121.0908      0             -0.76551726     28.3842        28.384202     -1119349.8     -1119349.4    
       301  -7016.3079     -7016.3079      0             -0.7542531      28.406034      28.406036     -1109190.2     -1109189.9    
       302  -6912.4025     -6912.4025      0             -0.74308327     28.427868      28.42787      -1098992.5     -1098992.1    
       303  -6809.3794     -6809.3794      0             -0.73200829     28.449702      28.449704     -1088758.9     -1088758.5    
       304  -6707.2434     -6707.2434      0             -0.72102867     28.471536      28.471538     -1078491.9     -1078491.6    
       305  -6605.9991     -6605.9991      0             -0.7101449      28.49337       28.493372     -1068194.1     -1068193.8    
       306  -6505.6507     -6505.6507      0             -0.69935745     28.515204      28.515206     -1057867.8     -1057867.5    
       307  -6406.2022     -6406.2022      0             -0.68866674     28.537038      28.53704      -1047515.6     -1047515.2    
       308  -6307.6576     -6307.6576      0             -0.67807319     28.558872      28.558874     -1037139.7     -1037139.4    
       309  -6210.0203     -6210.0203      0             -0.66757719     28.580706      28.580708     -1026742.7     -1026742.4    
       310  -6113.2939     -6113.2939      0             -0.65717909     28.60254       28.602542     -1016327       -1016326.6    
       311  -6017.4814     -6017.4814      0             -0.64687926     28.624374      28.624376     -1005894.9     -1005894.6    
       312  -5922.5859     -5922.5859      0             -0.63667799     28.646208      28.64621      -995448.91     -995448.56    
       313  -5828.61       -5828.61        0             -0.62657558     28.668042      28.668044     -984991.34     -984990.98    
       314  -5735.5562     -5735.5562      0             -0.6165723      28.689876      28.689878     -974524.56     -974524.2     
       315  -5643.4269     -5643.4269      0             -0.60666839     28.71171       28.711712     -964050.92     -964050.56    
       316  -5552.224      -5552.224       0             -0.59686408     28.733544      28.733546     -953572.76     -953572.39    
       317  -5461.9494     -5461.9494      0             -0.58715956     28.755378      28.75538      -943092.39     -943092.02    
       318  -5372.6047     -5372.6047      0             -0.577555       28.777212      28.777214     -932612.1      -932611.73    
       319  -5284.1913     -5284.1913      0             -0.56805056     28.799046      28.799048     -922134.17     -922133.81    
       320  -5196.7104     -5196.7104      0             -0.55864637     28.82088       28.820882     -911660.87     -911660.51    
       321  -5110.1629     -5110.1629      0             -0.54934252     28.842714      28.842716     -901194.44     -901194.07    
       322  -5024.5497     -5024.5497      0             -0.54013909     28.864548      28.86455      -890737.08     -890736.7     
       323  -4939.8712     -4939.8712      0             -0.53103615     28.886382      28.886384     -880290.99     -880290.62    
       324  -4856.1278     -4856.1278      0             -0.52203374     28.908216      28.908218     -869858.35     -869857.97    
       325  -4773.3195     -4773.3195      0             -0.51313185     28.93005       28.930052     -859441.3      -859440.92    
       326  -4691.4464     -4691.4464      0             -0.50433049     28.951884      28.951886     -849041.96     -849041.59    
       327  -4610.5081     -4610.5081      0             -0.49562962     28.973718      28.97372      -838662.45     -838662.07    
       328  -4530.5041     -4530.5041      0             -0.48702919     28.995552      28.995554     -828304.82     -828304.44    
       329  -4451.4336     -4451.4336      0             -0.47852911     29.017386      29.017388     -817971.12     -817970.75    
       330  -4373.2959     -4373.2959      0             -0.47012931     29.03922       29.039222     -807663.38     -807663.01    
       331  -4296.0898     -4296.0898      0             -0.46182965     29.061054      29.061056     -797383.58     -797383.21    
       332  -4219.8139     -4219.8139      0             -0.45363        29.082888      29.08289      -787133.69     -787133.32    
       333  -4144.4669     -4144.4669      0             -0.44553019     29.104722      29.104724     -776915.64     -776915.26    
       334  -4070.047      -4070.047       0             -0.43753005     29.126556      29.126558     -766731.33     -766730.95    
       335  -3996.5523     -3996.5523      0             -0.42962937     29.14839       29.148392     -756582.63     -756582.25    
       336  -3923.9809     -3923.9809      0             -0.42182794     29.170224      29.170226     -746471.39     -746471.01    
       337  -3852.3303     -3852.3303      0             -0.41412551     29.192058      29.19206      -736399.41     -736399.04    
       338  -3781.5983     -3781.5983      0             -0.40652182     29.213892      29.213894     -726368.48     -726368.11    
       339  -3711.7823     -3711.7823      0             -0.39901659     29.235726      29.235728     -716380.34     -716379.97    
       340  -3642.8793     -3642.8793      0             -0.39160953     29.25756       29.257562     -706436.7      -706436.33    
       341  -3574.8866     -3574.8866      0             -0.38430031     29.279394      29.279396     -696539.25     -696538.87    
       342  -3507.8009     -3507.8009      0             -0.37708859     29.301228      29.30123      -686689.62     -686689.25    
       343  -3441.6189     -3441.6189      0             -0.36997404     29.323062      29.323064     -676889.43     -676889.06    
       344  -3376.3373     -3376.3373      0             -0.36295626     29.344896      29.344898     -667140.26     -667139.89    
       345  -3311.9524     -3311.9524      0             -0.35603488     29.36673       29.366732     -657443.65     -657443.28    
       346  -3248.4603     -3248.4603      0             -0.34920948     29.388564      29.388566     -647801.11     -647800.74    
       347  -3185.8572     -3185.8572      0             -0.34247965     29.410398      29.4104       -638214.11     -638213.74    
       348  -3124.139      -3124.139       0             -0.33584494     29.432232      29.432234     -628684.08     -628683.71    
       349  -3063.3013     -3063.3013      0             -0.3293049      29.454066      29.454068     -619212.42     -619212.06    
       350  -3003.34       -3003.34        0             -0.32285905     29.4759        29.475902     -609800.51     -609800.14    
       351  -2944.2503     -2944.2503      0             -0.31650691     29.497734      29.497736     -600449.66     -600449.3     
       352  -2886.0276     -2886.0276      0             -0.31024797     29.519568      29.51957      -591161.17     -591160.81    
       353  -2828.6672     -2828.6672      0             -0.30408172     29.541402      29.541404     -581936.29     -581935.93    
       354  -2772.164      -2772.164       0             -0.29800763     29.563236      29.563238     -572776.24     -572775.89    
       355  -2716.513      -2716.513       0             -0.29202515     29.58507       29.585072     -563682.2      -563681.85    
       356  -2661.709      -2661.709       0             -0.28613372     29.606904      29.606906     -554655.32     -554654.97    
       357  -2607.7466     -2607.7466      0             -0.28033276     29.628738      29.62874      -545696.7      -545696.35    
       358  -2554.6205     -2554.6205      0             -0.2746217      29.650572      29.650574     -536807.41     -536807.06    
       359  -2502.3249     -2502.3249      0             -0.26899993     29.672406      29.672408     -527988.48     -527988.14    
       360  -2450.8543     -2450.8543      0             -0.26346683     29.69424       29.694242     -519240.92     -519240.58    
       361  -2400.2028     -2400.2028      0             -0.2580218      29.716074      29.716076     -510565.67     -510565.33    
       362  -2350.3645     -2350.3645      0             -0.25266418     29.737908      29.73791      -501963.66     -501963.32    
       363  -2301.3335     -2301.3335      0             -0.24739335     29.759742      29.759744     -493435.78     -493435.44    
       364  -2253.1035     -2253.1035      0             -0.24220863     29.781576      29.781578     -484982.87     -484982.53    
       365  -2205.6685     -2205.6685      0             -0.23710936     29.80341       29.803412     -476605.74     -476605.4     
       366  -2159.022      -2159.022       0             -0.23209487     29.825244      29.825246     -468305.16     -468304.84    
       367  -2113.1578     -2113.1578      0             -0.22716446     29.847078      29.84708      -460081.89     -460081.56    
       368  -2068.0692     -2068.0692      0             -0.22231744     29.868912      29.868914     -451936.61     -451936.28    
       369  -2023.7498     -2023.7498      0             -0.2175531      29.890746      29.890748     -443869.99     -443869.67    
       370  -1980.1929     -1980.1929      0             -0.21287074     29.91258       29.912582     -435882.67     -435882.35    
       371  -1937.3918     -1937.3918      0             -0.20826961     29.934414      29.934416     -427975.23     -427974.91    
       372  -1895.3396     -1895.3396      0             -0.203749       29.956248      29.95625      -420148.24     -420147.92    
       373  -1854.0295     -1854.0295      0             -0.19930817     29.978082      29.978084     -412402.21     -412401.9     
       374  -1813.4545     -1813.4545      0             -0.19494636     29.999916      29.999918     -404737.64     -404737.33    
       375  -1773.6077     -1773.6077      0             -0.19066283     30.02175       30.021752     -397154.98     -397154.68    
       376  -1734.482      -1734.482       0             -0.18645682     30.043584      30.043586     -389654.65     -389654.35    
       377  -1696.0703     -1696.0703      0             -0.18232755     30.065418      30.06542      -382237.04     -382236.74    
       378  -1658.3653     -1658.3653      0             -0.17827427     30.087252      30.087254     -374902.49     -374902.2     
       379  -1621.3599     -1621.3599      0             -0.17429619     30.109086      30.109088     -367651.33     -367651.04    
       380  -1585.0467     -1585.0467      0             -0.17039252     30.13092       30.130922     -360483.84     -360483.55    
       381  -1549.4185     -1549.4185      0             -0.16656249     30.152754      30.152756     -353400.27     -353399.98    
       382  -1514.4679     -1514.4679      0             -0.1628053      30.174588      30.17459      -346400.85     -346400.56    
       383  -1480.1874     -1480.1874      0             -0.15912015     30.196422      30.196424     -339485.76     -339485.47    
       384  -1446.5697     -1446.5697      0             -0.15550624     30.218256      30.218258     -332655.16     -332654.88    
       385  -1413.6073     -1413.6073      0             -0.15196278     30.24009       30.240092     -325909.17     -325908.89    
       386  -1381.2926     -1381.2926      0             -0.14848895     30.261924      30.261926     -319247.9      -319247.62    
       387  -1349.6182     -1349.6182      0             -0.14508395     30.283758      30.28376      -312671.4      -312671.13    
       388  -1318.5764     -1318.5764      0             -0.14174697     30.305592      30.305594     -306179.72     -306179.45    
       389  -1288.1598     -1288.1598      0             -0.13847718     30.327426      30.327428     -299772.86     -299772.6     
       390  -1258.3607     -1258.3607      0             -0.13527378     30.34926       30.349262     -293450.8      -293450.54    
       391  -1229.1716     -1229.1716      0             -0.13213594     30.371094      30.371096     -287213.48     -287213.22    
       392  -1200.5847     -1200.5847      0             -0.12906286     30.392928      30.39293      -281060.84     -281060.58    
       393  -1172.5925     -1172.5925      0             -0.1260537      30.414762      30.414764     -274992.75     -274992.5     
       394  -1145.1874     -1145.1874      0             -0.12310765     30.436596      30.436598     -269009.11     -269008.86    
       395  -1118.3617     -1118.3617      0             -0.12022389     30.45843       30.458432     -263109.73     -263109.49    
       396  -1092.1078     -1092.1078      0             -0.11740159     30.480264      30.480266     -257294.44     -257294.2     
       397  -1066.4181     -1066.4181      0             -0.11463994     30.502098      30.5021       -251563.04     -251562.8     
       398  -1041.2849     -1041.2849      0             -0.11193812     30.523932      30.523934     -245915.28     -245915.04    
       399  -1016.7005     -1016.7005      0             -0.10929531     30.545766      30.545768     -240350.9      -240350.67    
       400  -992.65747     -992.65747      0             -0.10671068     30.5676        30.567602     -234869.63     -234869.4     
       401  -969.14811     -969.14811      0             -0.10418342     30.589434      30.589436     -229471.16     -229470.94    
       402  -946.16484     -946.16484      0             -0.10171272     30.611268      30.61127      -224155.17     -224154.94    
       403  -923.70009     -923.70009      0             -0.09929776     30.633102      30.633104     -218921.29     -218921.07    
       404  -901.74632     -901.74632      0             -0.096937729    30.654936      30.654938     -213769.17     -213768.95    
       405  -880.29598     -880.29598      0             -0.094631818    30.67677       30.676772     -208698.4      -208698.18    
       406  -859.34157     -859.34157      0             -0.092379219    30.698604      30.698606     -203708.58     -203708.37    
       407  -838.87562     -838.87562      0             -0.090179129    30.720438      30.72044      -198799.27     -198799.06    
       408  -818.89065     -818.89065      0             -0.088030745    30.742272      30.742274     -193970.02     -193969.81    
       409  -799.37925     -799.37925      0             -0.085933269    30.764106      30.764108     -189220.36     -189220.16    
       410  -780.33402     -780.33402      0             -0.083885907    30.78594       30.785942     -184549.8      -184549.6     
       411  -761.7476      -761.7476       0             -0.081887867    30.807774      30.807776     -179957.84     -179957.64    
       412  -743.61267     -743.61267      0             -0.079938362    30.829608      30.82961      -175443.95     -175443.76    
       413  -725.92193     -725.92193      0             -0.078036608    30.851442      30.851444     -171007.59     -171007.4     
       414  -708.66814     -708.66814      0             -0.076181825    30.873276      30.873278     -166648.2      -166648.02    
       415  -691.8441      -691.8441       0             -0.07437324     30.89511       30.895112     -162365.22     -162365.04    
       416  -675.44263     -675.44263      0             -0.072610082    30.916944      30.916946     -158158.06     -158157.88    
       417  -659.45661     -659.45661      0             -0.070891585    30.938778      30.93878      -154026.11     -154025.93    
       418  -643.87897     -643.87897      0             -0.069216989    30.960612      30.960614     -149968.76     -149968.59    
       419  -628.70268     -628.70268      0             -0.067585539    30.982446      30.982448     -145985.39     -145985.22    
       420  -613.92077     -613.92077      0             -0.065996483    31.00428       31.004282     -142075.36     -142075.19    
       421  -599.5263      -599.5263       0             -0.064449077    31.026114      31.026116     -138238        -138237.84    
       422  -585.5124      -585.5124       0             -0.062942583    31.047948      31.04795      -134472.67     -134472.51    
       423  -571.87224     -571.87224      0             -0.061476266    31.069782      31.069784     -130778.67     -130778.51    
       424  -558.59906     -558.59906      0             -0.060049399    31.091616      31.091618     -127155.34     -127155.18    
       425  -545.68615     -545.68615      0             -0.058661261    31.11345       31.113452     -123601.96     -123601.81    
       426  -533.12684     -533.12684      0             -0.057311135    31.135284      31.135286     -120117.84     -120117.69    
       427  -520.91454     -520.91454      0             -0.055998313    31.157118      31.15712      -116702.26     -116702.11    
       428  -509.04271     -509.04271      0             -0.054722091    31.178952      31.178954     -113354.5      -113354.35    
       429  -497.50659     -497.50659      0             -0.053481958    31.200786      31.200788     -110076.32     -110076.18    
       430  -486.29608     -486.29608      0             -0.052276829    31.22262       31.222622     -106861.71     -106861.57    
       431  -475.40683     -475.40683      0             -0.051106234    31.244454      31.244456     -103712.73     -103712.6     
       432  -464.83253     -464.83253      0             -0.049969497    31.266288      31.26629      -100628.63     -100628.5     
       433  -454.56695     -454.56695      0             -0.048865947    31.288122      31.288124     -97608.642     -97608.511    
       434  -444.60394     -444.60394      0             -0.047794923    31.309956      31.309958     -94652.003     -94651.874    
       435  -434.93738     -434.93738      0             -0.046755769    31.33179       31.331792     -91757.942     -91757.816    
       436  -425.56126     -425.56126      0             -0.045747835    31.353624      31.353626     -88925.685     -88925.562    
       437  -416.4696      -416.4696       0             -0.044770482    31.375458      31.37546      -86154.453     -86154.332    
       438  -407.65651     -407.65651      0             -0.043823074    31.397292      31.397294     -83443.464     -83443.345    
       439  -399.11615     -399.11615      0             -0.042904986    31.419126      31.419128     -80791.93      -80791.815    
       440  -390.84278     -390.84278      0             -0.042015598    31.44096       31.440962     -78199.064     -78198.951    
       441  -382.83069     -382.83069      0             -0.041154299    31.462794      31.462796     -75664.075     -75663.964    
       442  -375.07427     -375.07427      0             -0.040320484    31.484628      31.48463      -73186.167     -73186.059    
       443  -367.56797     -367.56797      0             -0.039513557    31.506462      31.506464     -70764.548     -70764.442    
       444  -360.30631     -360.30631      0             -0.038732928    31.528296      31.528298     -68398.42      -68398.316    
       445  -353.28388     -353.28388      0             -0.037978017    31.55013       31.550132     -66086.986     -66086.885    
       446  -346.49534     -346.49534      0             -0.037248249    31.571964      31.571966     -63829.45      -63829.351    
       447  -339.93543     -339.93543      0             -0.036543059    31.593798      31.5938       -61625.013     -61624.916    
       448  -333.59896     -333.59896      0             -0.035861888    31.615632      31.615634     -59472.878     -59472.783    
       449  -327.48081     -327.48081      0             -0.035204187    31.637466      31.637468     -57372.249     -57372.156    
       450  -321.57592     -321.57592      0             -0.034569411    31.6593        31.659302     -55322.329     -55322.238    
       451  -315.87932     -315.87932      0             -0.033957026    31.681134      31.681136     -53322.325     -53322.236    
       452  -310.3861      -310.3861       0             -0.033366506    31.702968      31.70297      -51371.443     -51371.357    
       453  -305.09144     -305.09144      0             -0.03279733     31.724802      31.724804     -49468.893     -49468.809    
       454  -299.99057     -299.99057      0             -0.032248986    31.746636      31.746638     -47613.887     -47613.805    
       455  -295.07881     -295.07881      0             -0.031720972    31.76847       31.768472     -45805.639     -45805.559    
       456  -290.35154     -290.35154      0             -0.031212791    31.790304      31.790306     -44043.365     -44043.287    
       457  -285.80422     -285.80422      0             -0.030723954    31.812138      31.81214      -42326.286     -42326.209    
       458  -281.43238     -281.43238      0             -0.030253981    31.833972      31.833974     -40653.625     -40653.551    
       459  -277.23162     -277.23162      0             -0.0298024      31.855806      31.855808     -39024.61      -39024.538    
       460  -273.19762     -273.19762      0             -0.029368744    31.87764       31.877642     -37438.473     -37438.402    
       461  -269.32612     -269.32612      0             -0.028952557    31.899474      31.899476     -35894.448     -35894.379    
       462  -265.61293     -265.61293      0             -0.02855339     31.921308      31.92131      -34391.776     -34391.708    
       463  -262.05394     -262.05394      0             -0.028170799    31.943142      31.943144     -32929.701     -32929.635    
       464  -258.64512     -258.64512      0             -0.02780435     31.964976      31.964978     -31507.473     -31507.409    
       465  -255.38248     -255.38248      0             -0.027453617    31.98681       31.986812     -30124.346     -30124.284    
       466  -252.26214     -252.26214      0             -0.02711818     32.008644      32.008646     -28779.581     -28779.521    
       467  -249.28025     -249.28025      0             -0.026797627    32.030478      32.03048      -27472.442     -27472.383    
       468  -246.43306     -246.43306      0             -0.026491554    32.052312      32.052314     -26202.199     -26202.142    
       469  -243.71687     -243.71687      0             -0.026199563    32.074146      32.074148     -24968.127     -24968.072    
       470  -241.12806     -241.12806      0             -0.025921266    32.09598       32.095982     -23769.505     -23769.451    
       471  -238.66307     -238.66307      0             -0.02565628     32.117814      32.117816     -22605.613     -22605.561    
       472  -236.31841     -236.31841      0             -0.025404229    32.139648      32.13965      -21479         -21478.949    
       473  -238.10043     -238.10043      0             -0.025595796    32.161482      32.161484      18760.298      18760.291    
       474  -240.08914     -240.08914      0             -0.025809582    32.183316      32.183318      18573.748      18573.741    
       475  -242.05939     -242.05939      0             -0.026021385    32.20515       32.205152      18388.808      18388.801    
       476  -244.01134     -244.01134      0             -0.026231219    32.226984      32.226986      18205.466      18205.459    
       477  -245.94512     -245.94512      0             -0.0264391      32.248818      32.24882       18023.707      18023.701    
       478  -247.86088     -247.86088      0             -0.026645044    32.270652      32.270654      17843.521      17843.514    
       479  -249.75875     -249.75875      0             -0.026849066    32.292486      32.292488      17664.893      17664.886    
       480  -251.63888     -251.63888      0             -0.02705118     32.31432       32.314322      17487.811      17487.804    
       481  -253.50141     -253.50141      0             -0.027251402    32.336154      32.336156      17312.263      17312.256    
       482  -255.34647     -255.34647      0             -0.027449746    32.357988      32.35799       17138.236      17138.229    
       483  -257.17421     -257.17421      0             -0.027646227    32.379822      32.379824      16965.717      16965.711    
       484  -258.98475     -258.98475      0             -0.027840861    32.401656      32.401658      16794.696      16794.689    
       485  -260.77824     -260.77824      0             -0.028033661    32.42349       32.423492      16625.158      16625.152    
       486  -262.5548      -262.5548       0             -0.028224641    32.445324      32.445326      16457.093      16457.087    
       487  -264.31458     -264.31458      0             -0.028413817    32.467158      32.46716       16290.489      16290.482    
       488  -266.0577      -266.0577       0             -0.028601203    32.488992      32.488994      16125.332      16125.326    
       489  -267.78429     -267.78429      0             -0.028786811    32.510826      32.510828      15961.613      15961.607    
       490  -269.49449     -269.49449      0             -0.028970658    32.53266       32.532662      15799.318      15799.312    
       491  -271.18842     -271.18842      0             -0.029152755    32.554494      32.554496      15638.437      15638.431    
       492  -272.86621     -272.86621      0             -0.029333118    32.576328      32.57633       15478.958      15478.952    
       493  -274.528       -274.528        0             -0.02951176     32.598162      32.598164      15320.869      15320.863    
       494  -276.1739      -276.1739       0             -0.029688694    32.619996      32.619998      15164.16       15164.154    
       495  -277.80404     -277.80404      0             -0.029863934    32.64183       32.641832      15008.818      15008.812    
       496  -279.41855     -279.41855      0             -0.030037494    32.663664      32.663666      14854.834      14854.828    
       497  -281.01755     -281.01755      0             -0.030209387    32.685498      32.6855        14702.195      14702.189    
       498  -282.60117     -282.60117      0             -0.030379625    32.707332      32.707334      14550.89       14550.885    
       499  -284.16952     -284.16952      0             -0.030548223    32.729166      32.729168      14400.91       14400.904    
       500  -285.72272     -285.72272      0             -0.030715193    32.751         32.751002      14252.243      14252.237    
       501  -287.26091     -287.26091      0             -0.030880548    32.772834      32.772836      14104.878      14104.872    
       502  -288.78419     -288.78419      0             -0.0310443      32.794668      32.79467       13958.805      13958.799    
       503  -290.29268     -290.29268      0             -0.031206464    32.816502      32.816504      13814.013      13814.008    
       504  -291.78651     -291.78651      0             -0.03136705     32.838336      32.838338      13670.492      13670.486    
       505  -293.26579     -293.26579      0             -0.031526073    32.86017       32.860172      13528.231      13528.226    
       506  -294.73064     -294.73064      0             -0.031683544    32.882004      32.882006      13387.221      13387.215    
       507  -296.18117     -296.18117      0             -0.031839475    32.903838      32.90384       13247.45       13247.444    
       508  -297.61749     -297.61749      0             -0.03199388     32.925672      32.925674      13108.909      13108.903    
       509  -299.03972     -299.03972      0             -0.03214677     32.947506      32.947508      12971.587      12971.582    
       510  -300.44797     -300.44797      0             -0.032298157    32.96934       32.969342      12835.476      12835.47     
       511  -301.84235     -301.84235      0             -0.032448053    32.991174      32.991176      12700.564      12700.558    
       512  -303.22298     -303.22298      0             -0.03259647     33.013008      33.01301       12566.842      12566.836    
       513  -304.58996     -304.58996      0             -0.032743421    33.034842      33.034844      12434.3        12434.295    
       514  -305.94341     -305.94341      0             -0.032888917    33.056676      33.056678      12302.929      12302.924    
       515  -307.28343     -307.28343      0             -0.033032969    33.07851       33.078512      12172.719      12172.713    
       516  -308.61013     -308.61013      0             -0.033175589    33.100344      33.100346      12043.66       12043.655    
       517  -309.92362     -309.92362      0             -0.033316789    33.122178      33.12218       11915.743      11915.738    
       518  -311.22399     -311.22399      0             -0.033456579    33.144012      33.144014      11788.959      11788.954    
       519  -312.51137     -312.51137      0             -0.033594973    33.165846      33.165848      11663.298      11663.293    
       520  -313.78585     -313.78585      0             -0.033731979    33.18768       33.187682      11538.752      11538.747    
       521  -315.04754     -315.04754      0             -0.033867611    33.209514      33.209516      11415.31       11415.305    
       522  -316.29654     -316.29654      0             -0.034001878    33.231348      33.23135       11292.965      11292.96     
       523  -317.53296     -317.53296      0             -0.034134793    33.253182      33.253184      11171.706      11171.701    
       524  -318.75688     -318.75688      0             -0.034266365    33.275016      33.275018      11051.525      11051.521    
       525  -319.96842     -319.96842      0             -0.034396606    33.29685       33.296852      10932.414      10932.409    
       526  -321.16768     -321.16768      0             -0.034525526    33.318684      33.318686      10814.363      10814.358    
       527  -322.35475     -322.35475      0             -0.034653136    33.340518      33.34052       10697.363      10697.359    
       528  -323.52974     -323.52974      0             -0.034779447    33.362352      33.362354      10581.407      10581.402    
       529  -324.69274     -324.69274      0             -0.034904469    33.384186      33.384188      10466.485      10466.48     
       530  -325.84384     -325.84384      0             -0.035028213    33.40602       33.406022      10352.588      10352.584    
       531  -326.98315     -326.98315      0             -0.035150689    33.427854      33.427856      10239.71       10239.705    
       532  -328.11077     -328.11077      0             -0.035271908    33.449688      33.44969       10127.84       10127.836    
       533  -329.22678     -329.22678      0             -0.035391878    33.471522      33.471524      10016.971      10016.967    
       534  -330.33128     -330.33128      0             -0.035510612    33.493356      33.493358      9907.0949      9907.0904    
       535  -331.42436     -331.42436      0             -0.035628119    33.51519       33.515192      9798.2028      9798.1984    
       536  -332.50612     -332.50612      0             -0.035744408    33.537024      33.537026      9690.287       9690.2826    
       537  -333.57665     -333.57665      0             -0.03585949     33.558858      33.55886       9583.3393      9583.335     
       538  -334.63604     -334.63604      0             -0.035973375    33.580692      33.580694      9477.3519      9477.3475    
       539  -335.68439     -335.68439      0             -0.036086072    33.602526      33.602528      9372.3166      9372.3123    
       540  -336.72178     -336.72178      0             -0.036197591    33.62436       33.624362      9268.2258      9268.2215    
       541  -337.74829     -337.74829      0             -0.036307942    33.646194      33.646196      9165.0715      9165.0673    
       542  -338.76404     -338.76404      0             -0.036417134    33.668028      33.66803       9062.8461      9062.8419    
       543  -339.76909     -339.76909      0             -0.036525177    33.689862      33.689864      8961.5418      8961.5377    
       544  -340.76353     -340.76353      0             -0.03663208     33.711696      33.711698      8861.1511      8861.147     
       545  -341.74746     -341.74746      0             -0.036737852    33.73353       33.733532      8761.6664      8761.6623    
       546  -342.72097     -342.72097      0             -0.036842504    33.755364      33.755366      8663.0802      8663.0762    
       547  -343.68412     -343.68412      0             -0.036946043    33.777198      33.7772        8565.3851      8565.3811    
       548  -344.63702     -344.63702      0             -0.03704848     33.799032      33.799034      8468.5737      8468.5697    
       549  -345.57975     -345.57975      0             -0.037149823    33.820866      33.820868      8372.6386      8372.6346    
       550  -346.51239     -346.51239      0             -0.037250082    33.8427        33.842702      8277.5726      8277.5687    
       551  -347.43501     -347.43501      0             -0.037349264    33.864534      33.864536      8183.3685      8183.3646    
       552  -348.34772     -348.34772      0             -0.03744738     33.886368      33.88637       8090.0192      8090.0153    
       553  -349.25058     -349.25058      0             -0.037544437    33.908202      33.908204      7997.5175      7997.5137    
       554  -350.14368     -350.14368      0             -0.037640446    33.930036      33.930038      7905.8565      7905.8527    
       555  -351.0271      -351.0271       0             -0.037735413    33.95187       33.951872      7815.0292      7815.0254    
       556  -351.90092     -351.90092      0             -0.037829349    33.973704      33.973706      7725.0285      7725.0248    
       557  -352.76522     -352.76522      0             -0.037922261    33.995538      33.99554       7635.8478      7635.844     
       558  -353.62008     -353.62008      0             -0.038014159    34.017372      34.017374      7547.48        7547.4763    
       559  -354.46558     -354.46558      0             -0.038105049    34.039206      34.039208      7459.9186      7459.9149    
       560  -355.30179     -355.30179      0             -0.038194942    34.06104       34.061042      7373.1568      7373.1531    
       561  -356.12879     -356.12879      0             -0.038283845    34.082874      34.082876      7287.1879      7287.1843    
       562  -356.94666     -356.94666      0             -0.038371766    34.104708      34.10471       7202.0053      7202.0017    
       563  -357.75547     -357.75547      0             -0.038458713    34.126542      34.126544      7117.6026      7117.599     
       564  -358.55531     -358.55531      0             -0.038544696    34.148376      34.148378      7033.9731      7033.9696    
       565  -359.34624     -359.34624      0             -0.038629721    34.17021       34.170212      6951.1105      6951.107     
       566  -360.12834     -360.12834      0             -0.038713796    34.192044      34.192046      6869.0084      6869.0049    
       567  -360.90168     -360.90168      0             -0.038796931    34.213878      34.21388       6787.6604      6787.657     
       568  -361.66634     -361.66634      0             -0.038879132    34.235712      34.235714      6707.0603      6707.0568    
       569  -362.42239     -362.42239      0             -0.038960407    34.257546      34.257548      6627.2017      6627.1983    
       570  -363.1699      -363.1699       0             -0.039040765    34.27938       34.279382      6548.0786      6548.0752    
       571  -363.90895     -363.90895      0             -0.039120212    34.301214      34.301216      6469.6847      6469.6813    
       572  -364.6396      -364.6396       0             -0.039198757    34.323048      34.32305       6392.014       6392.0106    
       573  -365.36192     -365.36192      0             -0.039276407    34.344882      34.344884      6315.0604      6315.0571    
       574  -366.07599     -366.07599      0             -0.039353169    34.366716      34.366718      6238.818       6238.8147    
       575  -366.78188     -366.78188      0             -0.039429052    34.38855       34.388552      6163.2807      6163.2775    
       576  -367.47965     -367.47965      0             -0.039504062    34.410384      34.410386      6088.4428      6088.4396    
       577  -368.16937     -368.16937      0             -0.039578207    34.432218      34.43222       6014.2983      6014.2951    
       578  -368.85111     -368.85111      0             -0.039651494    34.454052      34.454054      5940.8414      5940.8382    
       579  -369.52494     -369.52494      0             -0.039723931    34.475886      34.475888      5868.0664      5868.0633    
       580  -370.19092     -370.19092      0             -0.039795524    34.49772       34.497722      5795.9676      5795.9645    
       581  -370.84912     -370.84912      0             -0.039866281    34.519554      34.519556      5724.5393      5724.5362    
[...]
      1858  -356.04273     -356.04273      0             -0.038274593    62.401572      62.401576     -19.592117     -19.59211     
      1859  -356.03869     -356.03869      0             -0.038274159    62.423406      62.42341      -19.492317     -19.49231     
      1860  -356.03467     -356.03467      0             -0.038273727    62.44524       62.445244     -19.392997     -19.39299     
      1861  -356.03067     -356.03067      0             -0.038273297    62.467074      62.467078     -19.294155     -19.294148    
      1862  -356.02669     -356.02669      0             -0.038272869    62.488908      62.488912     -19.19579      -19.195783    
      1863  -356.02273     -356.02273      0             -0.038272443    62.510742      62.510746     -19.097898     -19.097891    
      1864  -356.01879     -356.01879      0             -0.038272019    62.532576      62.53258      -19.000478     -19.000471    
      1865  -356.01486     -356.01486      0             -0.038271598    62.55441       62.554414     -18.903527     -18.90352     
      1866  -356.01096     -356.01096      0             -0.038271178    62.576244      62.576248     -18.807044     -18.807037    
      1867  -356.00707     -356.00707      0             -0.03827076     62.598078      62.598082     -18.711026     -18.711019    
      1868  -356.0032      -356.0032       0             -0.038270344    62.619912      62.619916     -18.615472     -18.615465    
      1869  -355.99935     -355.99935      0             -0.03826993     62.641746      62.64175      -18.520379     -18.520372    
      1870  -355.99552     -355.99552      0             -0.038269519    62.66358       62.663584     -18.425744     -18.425738    
      1871  -355.99171     -355.99171      0             -0.038269109    62.685414      62.685418     -18.331567     -18.33156     
      1872  -355.98791     -355.98791      0             -0.038268701    62.707248      62.707252     -18.237845     -18.237838    
      1873  -355.98414     -355.98414      0             -0.038268295    62.729082      62.729086     -18.144575     -18.144568    
      1874  -355.98038     -355.98038      0             -0.038267891    62.750916      62.75092      -18.051757     -18.05175     
      1875  -355.97664     -355.97664      0             -0.038267488    62.77275       62.772754     -17.959387     -17.95938     
      1876  -355.97291     -355.97291      0             -0.038267088    62.794584      62.794588     -17.867463     -17.867457    
      1877  -355.96921     -355.96921      0             -0.03826669     62.816418      62.816422     -17.775985     -17.775978    
      1878  -355.96552     -355.96552      0             -0.038266293    62.838252      62.838256     -17.684949     -17.684942    
      1879  -355.96185     -355.96185      0             -0.038265899    62.860086      62.86009      -17.594354     -17.594347    
      1880  -355.9582      -355.9582       0             -0.038265506    62.88192       62.881924     -17.504197     -17.504191    
      1881  -355.95456     -355.95456      0             -0.038265116    62.903754      62.903758     -17.414477     -17.414471    
      1882  -355.95095     -355.95095      0             -0.038264727    62.925588      62.925592     -17.325192     -17.325185    
      1883  -355.94735     -355.94735      0             -0.03826434     62.947422      62.947426     -17.236339     -17.236333    
      1884  -355.94376     -355.94376      0             -0.038263954    62.969256      62.96926      -17.147918     -17.147911    
      1885  -355.9402      -355.9402       0             -0.038263571    62.99109       62.991094     -17.059925     -17.059918    
      1886  -355.93665     -355.93665      0             -0.03826319     63.012924      63.012928     -16.972358     -16.972352    
      1887  -355.93312     -355.93312      0             -0.03826281     63.034758      63.034762     -16.885217     -16.885211    
      1888  -355.9296      -355.9296       0             -0.038262432    63.056592      63.056596     -16.798498     -16.798492    
      1889  -355.9261      -355.9261       0             -0.038262056    63.078426      63.07843      -16.712201     -16.712195    
      1890  -355.92262     -355.92262      0             -0.038261682    63.10026       63.100264     -16.626323     -16.626316    
      1891  -355.91916     -355.91916      0             -0.038261309    63.122094      63.122098     -16.540862     -16.540855    
      1892  -355.91571     -355.91571      0             -0.038260939    63.143928      63.143932     -16.455816     -16.455809    
      1893  -355.91228     -355.91228      0             -0.03826057     63.165762      63.165766     -16.371183     -16.371177    
      1894  -355.90886     -355.90886      0             -0.038260203    63.187596      63.1876       -16.286962     -16.286956    
      1895  -355.90546     -355.90546      0             -0.038259837    63.20943       63.209434     -16.203151     -16.203144    
      1896  -355.90208     -355.90208      0             -0.038259474    63.231264      63.231268     -16.119747     -16.119741    
      1897  -355.89872     -355.89872      0             -0.038259112    63.253098      63.253102     -16.036749     -16.036743    
      1898  -355.89537     -355.89537      0             -0.038258752    63.274932      63.274936     -15.954155     -15.954149    
      1899  -355.89203     -355.89203      0             -0.038258393    63.296766      63.29677      -15.871963     -15.871957    
      1900  -355.88871     -355.88871      0             -0.038258037    63.3186        63.318604     -15.790172     -15.790166    
      1901  -355.88541     -355.88541      0             -0.038257682    63.340434      63.340438     -15.708779     -15.708773    
      1902  -355.88213     -355.88213      0             -0.038257329    63.362268      63.362272     -15.627783     -15.627777    
      1903  -355.87886     -355.87886      0             -0.038256977    63.384102      63.384106     -15.547181     -15.547175    
      1904  -355.8756      -355.8756       0             -0.038256627    63.405936      63.40594      -15.466973     -15.466967    
      1905  -355.87236     -355.87236      0             -0.038256279    63.42777       63.427774     -15.387156     -15.38715     
      1906  -355.86914     -355.86914      0             -0.038255933    63.449604      63.449608     -15.307728     -15.307722    
      1907  -355.86593     -355.86593      0             -0.038255588    63.471438      63.471442     -15.228688     -15.228682    
      1908  -355.86274     -355.86274      0             -0.038255245    63.493272      63.493276     -15.150034     -15.150028    
      1909  -355.85956     -355.85956      0             -0.038254903    63.515106      63.51511      -15.071764     -15.071758    
      1910  -355.8564      -355.8564       0             -0.038254563    63.53694       63.536944     -14.993876     -14.99387     
      1911  -355.85326     -355.85326      0             -0.038254225    63.558774      63.558778     -14.916369     -14.916363    
      1912  -355.85013     -355.85013      0             -0.038253889    63.580608      63.580612     -14.839241     -14.839235    
      1913  -355.84701     -355.84701      0             -0.038253554    63.602442      63.602446     -14.762489     -14.762484    
      1914  -355.84391     -355.84391      0             -0.03825322     63.624276      63.62428      -14.686113     -14.686108    
      1915  -355.84082     -355.84082      0             -0.038252889    63.64611       63.646114     -14.610111     -14.610106    
      1916  -355.83775     -355.83775      0             -0.038252559    63.667944      63.667948     -14.534481     -14.534475    
      1917  -355.8347      -355.8347       0             -0.03825223     63.689778      63.689782     -14.459221     -14.459215    
      1918  -355.83166     -355.83166      0             -0.038251903    63.711612      63.711616     -14.384329     -14.384323    
      1919  -355.82863     -355.82863      0             -0.038251578    63.733446      63.73345      -14.309804     -14.309798    
      1920  -355.82562     -355.82562      0             -0.038251254    63.75528       63.755284     -14.235644     -14.235639    
      1921  -355.82262     -355.82262      0             -0.038250932    63.777114      63.777118     -14.161848     -14.161842    
      1922  -355.81964     -355.81964      0             -0.038250611    63.798948      63.798953     -14.088413     -14.088408    
      1923  -355.81667     -355.81667      0             -0.038250292    63.820782      63.820787     -14.015339     -14.015333    
      1924  -355.81372     -355.81372      0             -0.038249975    63.842616      63.842621     -13.942622     -13.942617    
      1925  -355.81078     -355.81078      0             -0.038249659    63.86445       63.864455     -13.870263     -13.870257    
      1926  -355.80785     -355.80785      0             -0.038249344    63.886284      63.886289     -13.798259     -13.798253    
      1927  -355.80494     -355.80494      0             -0.038249031    63.908118      63.908123     -13.726608     -13.726602    
      1928  -355.80204     -355.80204      0             -0.03824872     63.929952      63.929957     -13.655309     -13.655303    
      1929  -355.79916     -355.79916      0             -0.03824841     63.951786      63.951791     -13.58436      -13.584355    
      1930  -355.79629     -355.79629      0             -0.038248101    63.97362       63.973625     -13.51376      -13.513754    
      1931  -355.79344     -355.79344      0             -0.038247795    63.995454      63.995459     -13.443506     -13.443501    
      1932  -355.7906      -355.7906       0             -0.038247489    64.017288      64.017293     -13.373598     -13.373593    
      1933  -355.78777     -355.78777      0             -0.038247185    64.039122      64.039127     -13.304034     -13.304029    
      1934  -355.78496     -355.78496      0             -0.038246883    64.060956      64.060961     -13.234812     -13.234807    
      1935  -355.78216     -355.78216      0             -0.038246582    64.08279       64.082795     -13.165931     -13.165926    
      1936  -355.77937     -355.77937      0             -0.038246282    64.104624      64.104629     -13.097389     -13.097383    
      1937  -355.7766      -355.7766       0             -0.038245984    64.126458      64.126463     -13.029184     -13.029179    
      1938  -355.77384     -355.77384      0             -0.038245688    64.148292      64.148297     -12.961315     -12.96131     
      1939  -355.77109     -355.77109      0             -0.038245393    64.170126      64.170131     -12.89378      -12.893775    
      1940  -355.76836     -355.76836      0             -0.038245099    64.19196       64.191965     -12.826578     -12.826573    
      1941  -355.76564     -355.76564      0             -0.038244807    64.213794      64.213799     -12.759707     -12.759702    
      1942  -355.76294     -355.76294      0             -0.038244516    64.235628      64.235633     -12.693166     -12.693161    
      1943  -355.76024     -355.76024      0             -0.038244226    64.257462      64.257467     -12.626953     -12.626948    
      1944  -355.75756     -355.75756      0             -0.038243938    64.279296      64.279301     -12.561067     -12.561062    
      1945  -355.7549      -355.7549       0             -0.038243652    64.30113       64.301135     -12.495506     -12.495501    
      1946  -355.75224     -355.75224      0             -0.038243366    64.322964      64.322969     -12.430268     -12.430263    
      1947  -355.7496      -355.7496       0             -0.038243082    64.344798      64.344803     -12.365353     -12.365348    
      1948  -355.74698     -355.74698      0             -0.0382428      64.366632      64.366637     -12.300758     -12.300753    
      1949  -355.74436     -355.74436      0             -0.038242519    64.388466      64.388471     -12.236482     -12.236478    
      1950  -355.74176     -355.74176      0             -0.038242239    64.4103        64.410305     -12.172524     -12.172519    
      1951  -355.73917     -355.73917      0             -0.038241961    64.432134      64.432139     -12.108882     -12.108877    
      1952  -355.7366      -355.7366       0             -0.038241684    64.453968      64.453973     -12.045555     -12.04555     
      1953  -355.73403     -355.73403      0             -0.038241408    64.475802      64.475807     -11.982541     -11.982536    
      1954  -355.73148     -355.73148      0             -0.038241134    64.497636      64.497641     -11.919838     -11.919834    
      1955  -355.72894     -355.72894      0             -0.038240861    64.51947       64.519475     -11.857446     -11.857442    
      1956  -355.72642     -355.72642      0             -0.03824059     64.541304      64.541309     -11.795363     -11.795358    
      1957  -355.7239      -355.7239       0             -0.038240319    64.563138      64.563143     -11.733587     -11.733583    
      1958  -355.7214      -355.7214       0             -0.03824005     64.584972      64.584977     -11.672117     -11.672113    
      1959  -355.71891     -355.71891      0             -0.038239783    64.606806      64.606811     -11.610952     -11.610947    
      1960  -355.71643     -355.71643      0             -0.038239517    64.62864       64.628645     -11.55009      -11.550085    
      1961  -355.71397     -355.71397      0             -0.038239252    64.650474      64.650479     -11.489529     -11.489525    
      1962  -355.71152     -355.71152      0             -0.038238988    64.672308      64.672313     -11.429269     -11.429264    
      1963  -355.70907     -355.70907      0             -0.038238726    64.694142      64.694147     -11.369308     -11.369303    
      1964  -355.70665     -355.70665      0             -0.038238464    64.715976      64.715981     -11.309644     -11.309639    
      1965  -355.70423     -355.70423      0             -0.038238205    64.73781       64.737815     -11.250276     -11.250271    
      1966  -355.70182     -355.70182      0             -0.038237946    64.759644      64.759649     -11.191203     -11.191198    
      1967  -355.69943     -355.69943      0             -0.038237689    64.781478      64.781483     -11.132423     -11.132419    
      1968  -355.69705     -355.69705      0             -0.038237433    64.803312      64.803317     -11.073935     -11.073931    
      1969  -355.69468     -355.69468      0             -0.038237178    64.825146      64.825151     -11.015738     -11.015734    
      1970  -355.69232     -355.69232      0             -0.038236925    64.84698       64.846985     -10.95783      -10.957826    
      1971  -355.68998     -355.68998      0             -0.038236672    64.868814      64.868819     -10.90021      -10.900206    
      1972  -355.68764     -355.68764      0             -0.038236421    64.890648      64.890653     -10.842877     -10.842872    
      1973  -355.68532     -355.68532      0             -0.038236172    64.912482      64.912487     -10.785828     -10.785824    
      1974  -355.683       -355.683        0             -0.038235923    64.934316      64.934321     -10.729064     -10.729059    
      1975  -355.6807      -355.6807       0             -0.038235676    64.95615       64.956155     -10.672582     -10.672577    
      1976  -355.67842     -355.67842      0             -0.03823543     64.977984      64.977989     -10.616381     -10.616376    
      1977  -355.67614     -355.67614      0             -0.038235185    64.999818      64.999823     -10.56046      -10.560456    
      1978  -355.67387     -355.67387      0             -0.038234941    65.021652      65.021657     -10.504817     -10.504813    
      1979  -355.67162     -355.67162      0             -0.038234699    65.043486      65.043491     -10.449452     -10.449448    
      1980  -355.66937     -355.66937      0             -0.038234457    65.06532       65.065325     -10.394363     -10.394359    
      1981  -355.66714     -355.66714      0             -0.038234217    65.087154      65.087159     -10.339548     -10.339544    
      1982  -355.66492     -355.66492      0             -0.038233978    65.108988      65.108993     -10.285007     -10.285003    
      1983  -355.6627      -355.6627       0             -0.038233741    65.130822      65.130827     -10.230738     -10.230734    
      1984  -355.6605      -355.6605       0             -0.038233504    65.152656      65.152661     -10.176739     -10.176735    
      1985  -355.65831     -355.65831      0             -0.038233269    65.17449       65.174495     -10.12301      -10.123006    
      1986  -355.65614     -355.65614      0             -0.038233035    65.196324      65.196329     -10.06955      -10.069546    
      1987  -355.65397     -355.65397      0             -0.038232802    65.218158      65.218163     -10.016356     -10.016352    
      1988  -355.65181     -355.65181      0             -0.03823257     65.239992      65.239997     -9.9634281     -9.963424     
      1989  -355.64966     -355.64966      0             -0.038232339    65.261826      65.261831     -9.9107646     -9.9107605    
      1990  -355.64753     -355.64753      0             -0.038232109    65.28366       65.283665     -9.8583643     -9.8583603    
      1991  -355.6454      -355.6454       0             -0.038231881    65.305494      65.305499     -9.806226      -9.806222     
      1992  -355.64329     -355.64329      0             -0.038231654    65.327328      65.327333     -9.7543484     -9.7543444    
      1993  -355.64118     -355.64118      0             -0.038231427    65.349162      65.349167     -9.7027303     -9.7027263    
      1994  -355.63909     -355.63909      0             -0.038231202    65.370996      65.371001     -9.6513706     -9.6513666    
      1995  -355.63701     -355.63701      0             -0.038230978    65.39283       65.392835     -9.6002678     -9.6002639    
      1996  -355.63493     -355.63493      0             -0.038230755    65.414664      65.414669     -9.549421      -9.549417     
      1997  -355.63287     -355.63287      0             -0.038230534    65.436498      65.436503     -9.4988288     -9.4988248    
      1998  -355.63082     -355.63082      0             -0.038230313    65.458332      65.458337     -9.44849       -9.4484861    
      1999  -355.62878     -355.62878      0             -0.038230094    65.480166      65.480171     -9.3984034     -9.3983996    
      2000  -355.62675     -355.62675      0             -0.038229875    65.502         65.502005     -9.348568      -9.3485641    
Loop time of 3.65051 on 64 procs for 2000 steps with 400 atoms

Performance: 47.336 ns/day, 0.507 hours/ns, 547.868 timesteps/s
5097.5% CPU use with 1 MPI tasks x 64 OpenMP threads

MPI task timing breakdown:
Section |  min time  |  avg time  |  max time  |%varavg| %total
---------------------------------------------------------------
Pair    | 3.492      | 3.492      | 3.492      |   0.0 | 95.66
Neigh   | 0.051174   | 0.051174   | 0.051174   |   0.0 |  1.40
Comm    | 0.0051161  | 0.0051161  | 0.0051161  |   0.0 |  0.14
Output  | 0.060667   | 0.060667   | 0.060667   |   0.0 |  1.66
Modify  | 0.012244   | 0.012244   | 0.012244   |   0.0 |  0.34
Other   |            | 0.02933    |            |       |  0.80

Nlocal:            400 ave         400 max         400 min
Histogram: 1 0 0 0 0 0 0 0 0 0
Nghost:            162 ave         162 max         162 min
Histogram: 1 0 0 0 0 0 0 0 0 0
Neighs:           1948 ave        1948 max        1948 min
Histogram: 1 0 0 0 0 0 0 0 0 0

Total # of neighbors = 1948
Ave neighs/atom = 4.87
Neighbor list builds = 142
Dangerous builds = 0

Total wall time: 0:00:03
