LAMMPS (23 Jun 2022 - Update 2)
  using 64 OpenMP thread(s) per MPI task
################################################################################
# GRAPHENE: TENSILE TEST
################################################################################
#
# This is a lammps input file to simulate the stretching or compression of
# graphene. The output data can be used to calculate the Young's modulus and the
# breaking stress/strain. Buckling of a graphene sheet can be studied by
# compressing the sheet.
#
# When using this script, make sure that lammps is installed with the USER-REAXC
# and the MANYBODY packages.
#
# Date: 28/03/2016
# Author: Jeroen Mulkers
# Mail: jeroen.mulkers@uantwerpen.be
#
################################################################################


# UNITS
# 'real' units are needed when using reax/c. The default time step (1fs) for
# real units is used. Some useful conversion factors are defined.
units        real
timestep     0.1
variable     fpress  equal 0.000101325  # atm -> GPa
variable     fenergy equal 0.043        # Kcal/mole -> eV

# GRAPHENE SHEET
# The atom positions and the simulation box size will be read from a data file.
# Reactive force fields (reaxFF) are used to describe the interaction between
# the carbon atoms.(The pair_style reax is deprecated. so we use the modern
# reax/c implementation)
dimension    3
boundary     p p f
atom_style   charge
read_data    graphene_N400.dat
Reading data file ...
  orthogonal box = (0 0 -10) to (30 17.3205 10)
  1 by 1 by 1 MPI processor grid
  reading atoms ...
  400 atoms
  read_data CPU = 0.003 seconds
pair_style   reax/c NULL checkqeq no
pair_coeff   * * ffield.reax C
WARNING: Changed valency_val to valency_boc for X (src/REAXFF/reaxff_ffield.cpp:296)

# OUTPUT
# Calculate the average total, kinetic and potential energy per atom. Stress and
# strain are defined in x and y direction. When calculating the stress, we
# assume that the thickness of graphene is 3.35A.
variable     tmp     equal lx
variable     lx0     equal ${tmp}
variable     lx0     equal 30
variable     tmp     equal ly
variable     ly0     equal ${tmp}
variable     ly0     equal 17.3205
variable     etotal  equal etotal/atoms*${fenergy} #eV/atom
variable     etotal  equal etotal/atoms*0.043 
variable     pe      equal     pe/atoms*${fenergy} #eV/atom
variable     pe      equal     pe/atoms*0.043 
variable     ke      equal     ke/atoms*${fenergy} #eV/atom
variable     ke      equal     ke/atoms*0.043 
variable     strainx equal (lx-${lx0})/${lx0}
variable     strainx equal (lx-30)/${lx0}
variable     strainx equal (lx-30)/30
variable     strainy equal (ly-${ly0})/${ly0}
variable     strainy equal (ly-17.3205)/${ly0}
variable     strainy equal (ly-17.3205)/17.3205
variable     stressx equal -pxx*(lz/3.35)*${fpress} #GPa
variable     stressx equal -pxx*(lz/3.35)*0.000101325 
variable     stressy equal -pyy*(lz/3.35)*${fpress} #GPa
variable     stressy equal -pyy*(lz/3.35)*0.000101325 
thermo_style custom step time temp etotal press v_etotal v_pe v_ke              v_strainx v_stressx v_strainy v_stressy

# TEMPERATURE SETTINGS
variable     temp index 300
variable     seed index 1717
velocity     all create ${temp} ${seed} dist uniform
velocity     all create 300 ${seed} dist uniform
velocity     all create 300 1717 dist uniform

# EQUILIBRATION
# Relaxation of the system will be done in a NPT ensemble. The size of the
# simulation box can change in x and y direction to resolve stresses. The number
# of time steps should be large enough to relax the system in your final
# simulation but can be small for debugging purposes.
fix          fnpt all npt temp ${temp} ${temp} 10 x 0 0 500 y 0 0 500
fix          fnpt all npt temp 300 ${temp} 10 x 0 0 500 y 0 0 500
fix          fnpt all npt temp 300 300 10 x 0 0 500 y 0 0 500
thermo       1
run          1000

CITE-CITE-CITE-CITE-CITE-CITE-CITE-CITE-CITE-CITE-CITE-CITE-CITE

Your simulation uses code contributions which should be cited:

- pair reaxff command:

@Article{Aktulga12,
 author = {H. M. Aktulga, J. C. Fogarty, S. A. Pandit, A. Y. Grama},
 title = {Parallel reactive molecular dynamics: Numerical methods and algorithmic techniques},
 journal = {Parallel Computing},
 year =    2012,
 volume =  38,
 pages =   {245--259}
}

CITE-CITE-CITE-CITE-CITE-CITE-CITE-CITE-CITE-CITE-CITE-CITE-CITE

Neighbor list info ...
  update every 1 steps, delay 10 steps, check yes
  max neighbors/atom: 2000, page size: 100000
  master list distance cutoff = 12
  ghost atom cutoff = 12
  binsize = 6, bins = 5 3 4
  1 neighbor lists, perpetual/occasional/extra = 1 0 0
  (1) pair reax/c, perpetual
      attributes: half, newton off, ghost
      pair build: half/bin/newtoff/ghost
      stencil: full/ghost/bin/3d
      bin: standard
Per MPI rank memory allocation (min/avg/max) = 91.65 | 91.65 | 91.65 Mbytes
   Step          Time           Temp          TotEng         Press         v_etotal         v_pe           v_ke        v_strainx      v_stressx      v_strainy      v_stressy   
         0   0              300            28003.036      953169.3       3.0103264      2.97197        0.038356319    0             -864.43283      0             -864.43285    
         1   0.1            299.9365       27995.188      953014.38      3.0094827      2.9711345      0.0383482      1.8119386e-05 -864.28145      1.8119387e-05 -864.30231    
         2   0.2            299.7462       27971.652      952549.44      3.0069526      2.9686287      0.03832387     7.2474465e-05 -863.848        7.2475341e-05 -863.88964    
         3   0.3            299.43013      27932.452      951773.91      3.0027386      2.9644551      0.038283458    0.00016305671 -863.13199      0.00016306021 -863.19433    
         4   0.4            298.99001      27877.628      950686.91      2.996845       2.9586178      0.038227186    0.00028985164 -862.13261      0.00028986038 -862.21558    
         5   0.5            298.42827      27807.238      949287.2       2.9892781      2.9511227      0.038155365    0.00045283803 -860.84877      0.00045285549 -860.95224    
         6   0.6            297.74803      27721.356      947573.25      2.9800457      2.9419774      0.038068394    0.00065198675 -859.27906      0.00065201727 -859.40292    
         7   0.7            296.9531       27620.074      945543.25      2.969158       2.9311912      0.037966759    0.00088725926 -857.42186      0.00088730806 -857.56598    
         8   0.8            296.04796      27503.504      943195.17      2.9566267      2.9187757      0.037851033    0.0011586059  -855.27533      0.0011586791  -855.43956    
         9   0.9            295.03772      27371.777      940526.79      2.9424661      2.9047442      0.037721869    0.0014659638  -852.83747      0.0014660682  -853.02165    
        10   1              293.92814      27225.047      937535.81      2.9266925      2.8891125      0.037580004    0.0018092543  -850.10618      0.0018093978  -850.31015    
        11   1.1            292.72559      27063.486      934219.85      2.9093248      2.8718985      0.037426254    0.0021883806  -847.07932      0.0021885718  -847.30291    
        12   1.2            291.43704      26887.295      930576.62      2.8903842      2.8531227      0.037261507    0.0026032245  -843.75482      0.0026034728  -843.99784    
        13   1.3            290.07001      26696.697      926603.96      2.8698949      2.8328082      0.037086726    0.0030536433  -840.1307       0.003053959   -840.39298    
        14   1.4            288.63257      26491.941      922299.97      2.8478836      2.8109807      0.036902942    0.0035394663  -836.20525      0.0035398605  -836.48662    
        15   1.5            287.13326      26273.304      917663.12      2.8243802      2.787669       0.03671125     0.0040604913  -831.9771       0.0040609759  -832.27737    
        16   1.6            285.58114      26041.095      912692.43      2.7994177      2.7629049      0.036512804    0.0046164803  -827.44534      0.0046170682  -827.76435    
        17   1.7            283.98567      25795.648      907387.57      2.7730322      2.7367234      0.036308816    0.0052071561  -822.60967      0.0052078608  -822.94727    
        18   1.8            282.35673      25537.333      901749.06      2.7452633      2.7091627      0.036100549    0.005832198   -817.47056      0.0058330338  -817.8266     
        19   1.9            280.70454      25266.549      895778.41      2.716154       2.6802647      0.03588931     0.0064912374  -812.02939      0.0064922194  -812.40374    
        20   2              279.03966      24983.73       889478.33      2.685751       2.6500745      0.035676447    0.007183854   -806.28862      0.0071849981  -806.68116    
        21   2.1            277.37291      24689.341      882852.94      2.6541042      2.6186408      0.035463345    0.0079095718  -800.25197      0.0079108946  -800.6626     
        22   2.2            275.71533      24383.883      875907.91      2.6212674      2.586016       0.035251417    0.0086678549  -793.92459      0.0086693739  -794.35324    
        23   2.3            274.07819      24067.886      868650.7       2.5872977      2.5522556      0.035042102    0.0094581043  -787.31325      0.0094598374  -787.75987    
        24   2.4            272.47285      23741.915      861090.53      2.5522558      2.517419       0.034836851    0.010279654   -780.42615      0.01028162    -780.89101    
        25   2.5            270.91072      23406.564      853238.65      2.5162056      2.4815685      0.034637126    0.011131769   -773.27399      0.011133987   -773.75642    
        26   2.6            269.40319      23062.456      845108.21      2.479214       2.4447696      0.034444382    0.012013641   -765.86787      0.012016132   -766.36889    
        27   2.7            267.96161      22710.242      836715.24      2.4413511      2.407091       0.034260069    0.012924389   -758.22304      0.012927173   -758.74227    
        28   2.8            266.59745      22350.595      828080.33      2.4026889      2.3686033      0.034085655    0.013863055   -750.35764      0.013866154   -750.89581    
        29   2.9            265.32211      21984.206      819222.39      2.3633022      2.3293796      0.033922598    0.014828609   -742.28841      0.014832044   -742.84711    
        30   3              264.14714      21611.786      810172.57      2.323267       2.2894946      0.033772373    0.015819941   -734.04655      0.015823735   -734.62152    
        31   3.1            263.08404      21234.051      800951.99      2.2826605      2.249024       0.03363645     0.016835871   -725.64853      0.016840046   -726.24094    
        32   3.2            262.14379      20851.729      791589.28      2.2415609      2.2080446      0.033516236    0.017875145   -717.12081      0.017879726   -717.73085    
        33   3.3            261.33734      20465.547      782119.94      2.2000463      2.1666332      0.033413128    0.018936442   -708.49481      0.018941452   -709.1243     
        34   3.4            260.67551      20076.226      772578.02      2.1581943      2.1248658      0.03332851     0.020018377   -699.80318      0.020023839   -700.45043    
        35   3.5            260.16875      19684.48       762994.76      2.1160816      2.0828179      0.033263718    0.021119504   -691.07312      0.021125444   -691.73875    
        36   3.6            259.82718      19291.005      753411.43      2.0737831      2.040563       0.033220047    0.022238328   -682.34254      0.02224477    -683.02627    
        37   3.7            259.66073      18896.478      743864.41      2.0313714      1.9981726      0.033198765    0.023373308   -673.64352      0.023380276   -674.34689    
        38   3.8            259.67893      18501.548      734392.63      1.9889164      1.9557153      0.033201093    0.024522865   -665.01084      0.024530385   -665.73654    
        39   3.9            259.89105      18106.834      725037.74      1.9464847      1.9132564      0.033228213    0.025685393   -656.48424      0.02569349    -657.231      
        40   4              260.30597      17712.917      715836.67      1.9041386      1.8708574      0.033281262    0.02685927    -648.09733      0.02686797    -648.86371    
        41   4.1            260.93227      17320.342      706826.53      1.8619368      1.8285755      0.033361337    0.028042865   -639.88286      0.028052192   -640.66921    
        42   4.2            261.77818      16929.61       698043.94      1.819933       1.7864635      0.033469491    0.029234551   -631.87461      0.029244531   -632.68017    
        43   4.3            262.85161      16541.175      689524.21      1.7781763      1.7445695      0.033606733    0.030432716   -624.10421      0.030443375   -624.92899    
        44   4.4            264.16011      16155.447      681297.86      1.7367105      1.7029365      0.033774031    0.031635773   -616.59971      0.031647136   -617.44299    
        45   4.5            265.71096      15772.788      673395.07      1.6955747      1.6616024      0.033972314    0.032842173   -609.38847      0.032854265   -610.24952    
        46   4.6            267.51107      15393.511      665841.93      1.6548024      1.6206         0.034202466    0.034050415   -602.49361      0.034063261   -603.37275    
        47   4.7            269.56707      15017.882      658661.36      1.6144223      1.5799569      0.034465335    0.035259055   -595.93604      0.035272679   -596.83333    
        48   4.8            271.88529      14646.119      651871.48      1.5744578      1.539696       0.034761729    0.036466717   -589.73289      0.036481143   -590.64691    
        49   4.9            274.4718       14278.397      645487.84      1.5349277      1.4998352      0.035092426    0.037672102   -583.8976       0.037687355   -584.82824    
        50   5              277.33237      13914.846      639522.48      1.495846       1.4603878      0.035458162    0.038873996   -578.44116      0.038890098   -579.38807    
        51   5.1            280.47248      13555.557      633983.6       1.4572224      1.4213628      0.035859639    0.040071275   -573.37135      0.040088251   -574.33346    
        52   5.2            283.89734      13200.58       628875.65      1.4190624      1.3827649      0.036297523    0.041262915   -568.6922       0.041280786   -569.66833    
        53   5.3            287.61189      12849.931      624199.26      1.3813676      1.3445952      0.036772444    0.042447992   -564.40394      0.04246678    -565.39356    
        54   5.4            291.62082      12503.593      619952.42      1.3441362      1.3068512      0.037285004    0.043625687   -560.50486      0.043645415   -561.50708    
        55   5.5            295.92855      12161.517      616130.14      1.307363       1.2695273      0.037835766    0.044795289   -556.99054      0.044815978   -558.00419    
        56   5.6            300.53926      11823.628      612724.88      1.2710401      1.2326148      0.038425265    0.045956197   -553.85403      0.045977867   -554.87804    
        57   5.7            305.45685      11489.828      609726.72      1.2351565      1.1961025      0.039054001    0.047107915   -551.08628      0.047130586   -552.11962    
        58   5.8            310.685        11159.993      607123.84      1.1996992      1.1599768      0.039722442    0.048250056   -548.6767       0.048273748   -549.71795    
        59   5.9            316.22712      10833.982      604902.83      1.164653       1.124222       0.040431027    0.049382336   -546.61297      0.049407067   -547.66092    
        60   6              322.0864       10511.635      603049.07      1.1300007      1.0888206      0.041180162    0.050504571   -544.88177      0.050530361   -545.93525    
        61   6.1            328.26578      10192.776      601546.98      1.0957235      1.0537533      0.041970223    0.051616675   -543.46889      0.051643541   -544.52676    
        62   6.2            334.76793      9877.2184      600380.48      1.061801       1.0189994      0.042801551    0.052718653   -542.35975      0.052746612   -543.42075    
        63   6.3            341.59529      9564.7597      599532.77      1.0282117      0.98453721     0.043674459    0.053810595   -541.53902      0.053839665   -542.602      
        64   6.4            348.75004      9255.189       598987.15      0.99493282     0.95034359     0.044589225    0.054892672   -540.99148      0.05492287    -542.05531    
        65   6.5            356.23411      8948.2864      598726.84      0.96194079     0.91639469     0.045546097    0.055965129   -540.70189      0.05599647    -541.76537    
        66   6.6            364.04918      8643.8241      598735.24      0.9292111      0.88266581     0.046545288    0.057028277   -540.65514      0.057060776   -541.7171     
        67   6.7            372.19664      8341.5683      598996.13      0.89671859     0.84913161     0.047586977    0.058082487   -540.83642      0.058116161   -541.89575    
        68   6.8            380.67764      8041.2796      599493.71      0.86443756     0.81576625     0.048671309    0.059128186   -541.23137      0.059163048   -542.28697    
        69   6.9            389.49301      7742.7148      600212.73      0.83234185     0.78254345     0.049798393    0.060165845   -541.82607      0.060201911   -542.87688    
        70   7              398.64331      7445.6274      601138.52      0.80040495     0.74943665     0.050968299    0.061195976   -542.60716      0.06123326    -543.65215    
        71   7.1            408.1288       7149.7685      602257.03      0.76860012     0.71641906     0.052181061    0.062219128   -543.56182      0.062257642   -544.6        
        72   7.2            417.94941      6854.8881      603554.84      0.73690047     0.6834638      0.05343667     0.063235874   -544.67781      0.063275633   -545.70824    
        73   7.3            428.10476      6560.7352      605019.16      0.70527904     0.65054396     0.054735074    0.064246811   -545.94346      0.064287827   -546.96524    
        74   7.4            438.59408      6267.0595      606637.83      0.6737089      0.61763271     0.056076181    0.065252552   -547.34769      0.065294839   -548.35995    
        75   7.5            449.4163       5973.6111      608399.27      0.6421632      0.58470335     0.057459849    0.066253723   -548.87993      0.066297292   -549.88186    
        76   7.6            460.56992      5680.1421      610292.48      0.61061527     0.55172938     0.058885889    0.067250955   -550.53012      0.067295819   -551.52095    
        77   7.7            472.05307      5386.4065      612306.95      0.57903869     0.51868464     0.06035406     0.068244882   -552.28868      0.068291054   -553.2677     
        78   7.8            483.86344      5092.1613      614432.67      0.54740734     0.48554328     0.061864068    0.069236139   -554.14644      0.069283628   -555.11298    
        79   7.9            495.99832      4797.1672      616660.03      0.51569548     0.45227991     0.063415565    0.07022535    -556.09465      0.07027417    -557.04808    
        80   8              508.45451      4501.1886      618979.79      0.48387778     0.41886963     0.065008144    0.071213137   -558.12485      0.071263297   -559.0646     
        81   8.1            521.22838      4203.9948      621383.04      0.45192944     0.3852881      0.066641339    0.072200105   -560.2289       0.072251617   -561.15446    
        82   8.2            534.31581      3905.36        623861.13      0.4198262      0.35151157     0.068314624    0.073186848   -562.3989       0.073239722   -563.30979    
        83   8.3            547.7122       3605.0643      626405.63      0.38754442     0.317517       0.070027412    0.074173943   -564.62715      0.074228188   -565.52294    
        84   8.4            561.41251      3302.8941      629008.28      0.35506112     0.28328206     0.071779057    0.075161947   -566.90609      0.075217573   -567.78642    
        85   8.5            575.41125      2998.6425      631660.95      0.32235407     0.24878522     0.073568857    0.076151397   -569.2283       0.076208414   -570.09285    
        86   8.6            589.70252      2692.11        634355.6       0.28940183     0.21400577     0.075396059    0.077142809   -571.58643      0.077201225   -572.43493    
        87   8.7            604.2801       2383.105       637084.24      0.25618378     0.17892392     0.077259867    0.078136673   -573.97318      0.078196497   -574.80541    
        88   8.8            619.13755      2071.4444      639838.9       0.22268028     0.14352082     0.079159457    0.079133457   -576.38129      0.079194697   -577.19708    
        89   8.9            634.26831      1756.9546      642611.61      0.18887262     0.10777863     0.081093991    0.080133601   -578.80346      0.080196264   -579.60269    
        90   9              649.66592      1439.4714      645394.36      0.15474318     0.071680535    0.083062643    0.08113752    -581.23241      0.081201614   -582.01499    
        91   9.1            665.32424      1118.8417      648179.11      0.12027548     0.035210853    0.085064628    0.082145601   -583.66078      0.082211131   -584.42669    
        92   9.2            681.23772      794.92344      650957.77      0.08545427    -0.0016449662   0.087099236    0.083158201   -586.0812       0.083225175   -586.83045    
        93   9.3            697.40177      467.58705      653722.18      0.050265608   -0.038900274    0.089165882    0.084175652   -588.48621      0.084244075   -589.21886    
        94   9.4            713.81317      136.71603      656464.13      0.014696973   -0.076567178    0.091264151    0.085198256   -590.86832      0.085268132   -591.58447    
        95   9.5            730.47047     -197.79201      659175.34     -0.021262641   -0.1146565      0.09339386     0.086226283   -593.21998      0.086297618   -593.91977    
        96   9.6            747.37454     -536.0244       661847.5      -0.057622623   -0.15317774     0.09555512     0.087259978   -595.5336       0.087332775   -596.21718    
        97   9.7            764.52898     -878.05252      664472.27     -0.094390646   -0.19213904     0.09774839     0.088299554   -597.80154      0.088373817   -598.46913    
        98   9.8            781.9406      -1223.931       667041.31     -0.13157258    -0.23154712     0.099974542    0.089345195   -600.01616      0.089420926   -600.66799    
        99   9.9            799.61976     -1573.6968      669546.26     -0.1691724     -0.27140731     0.1022349      0.090397056   -602.16983      0.090474257   -602.80615    
       100   10             817.58057     -1927.3691      671978.84     -0.20719218    -0.31172345     0.10453127     0.091455261   -604.25493      0.091533934   -604.87603    
       101   10.1           835.84091     -2284.9488      674330.81     -0.245632      -0.35249793     0.10686593     0.092519908   -606.2639       0.092600054   -606.87007    
       102   10.2           854.42215     -2646.4187      676594.05     -0.28449002    -0.39373164     0.10924163     0.093591064   -608.18928      0.093672682   -608.78083    
       103   10.3           873.34863     -3011.7443      678760.58     -0.32376251    -0.43542397     0.11166146     0.094668766   -610.02372      0.094751857   -610.60096    
       104   10.4           892.6468      -3380.8741      680822.57     -0.36344396    -0.47757278     0.11412882     0.095753027   -611.75999      0.095837589   -612.32324    
       105   10.5           912.34417     -3753.7416      682772.4      -0.40352723    -0.52017444     0.11664721     0.096843828   -613.3911       0.09692986    -613.94067    
       106   10.6           932.46798     -4130.2666      684602.7      -0.44400366    -0.56322379     0.11922013     0.097941126   -614.91025      0.098028625   -615.44644    
       107   10.7           953.04388     -4510.3565      686306.37     -0.48486332    -0.60671417     0.12185085     0.09904485    -616.31092      0.099133813   -616.834      
       108   10.8           974.09452     -4893.9085      687876.63     -0.52609517    -0.65063743     0.12454227     0.1001549     -617.58686      0.10024533    -618.0971     
       109   10.9           995.63845     -5280.8113      689307.04     -0.56768721    -0.69498397     0.12729675     0.10127116    -618.7322       0.10136304    -619.22981    
       110   11             1017.6891     -5670.9458      690591.57     -0.60962667    -0.7397427      0.13011603     0.10239348    -619.74143      0.10248682    -620.22659    
       111   11.1           1040.2545     -6064.1866      691724.59     -0.65190006    -0.78490117     0.13300111     0.1035217     -620.60943      0.10361648    -621.08228    
       112   11.2           1063.3365     -6460.4027      692700.97     -0.6944933     -0.83044555     0.13595225     0.10465561    -621.33155      0.10475183    -621.79218    
       113   11.3           1086.9316     -6859.4576      693516.06     -0.73739169    -0.87636068     0.13896899     0.10579502    -621.90364      0.10589267    -622.35205    
       114   11.4           1111.0308     -7261.2094      694165.75     -0.78058001    -0.92263018     0.14205018     0.10693968    -622.32202      0.10703875    -622.75818    
       115   11.5           1135.6206     -7665.5108      694646.54     -0.82404241    -0.96923649     0.14519408     0.10808935    -622.58358      0.10818984    -623.00737    
       116   11.6           1160.6834     -8072.2092      694955.49     -0.86776249    -1.016161       0.14839847     0.10924376    -622.68578      0.10934565    -623.097      
       117   11.7           1186.1988     -8481.1463      695090.35     -0.91172323    -1.063384       0.15166073     0.11040262    -622.62665      0.11050591    -623.02504    
       118   11.8           1212.1442     -8892.158       695049.5      -0.95590699    -1.1108849      0.15497796     0.11156563    -622.40485      0.11167031    -622.79006    
       119   11.9           1238.4958     -9305.0746      694832.04     -1.0002955     -1.1586426      0.15834713     0.11273249    -622.01964      0.11283855    -622.39125    
       120   12             1265.2295     -9719.7206      694437.76     -1.04487       -1.2066351      0.16176516     0.11390288    -621.47095      0.1140103     -621.82847    
       121   12.1           1292.322      -10135.915      693867.2      -1.0896109     -1.2548399      0.16522905     0.11507645    -620.75932      0.11518522    -621.10221    
       122   12.2           1319.7514     -10553.472      693121.63     -1.1344983     -1.3032343      0.16873602     0.11625287    -619.88597      0.11636298    -620.21363    
       123   12.3           1347.4985     -10972.201      692203.09     -1.1795117     -1.3517953      0.1722836      0.1174318     -618.85275      0.11754324    -619.16458    
       124   12.4           1375.5471     -11391.907      691114.37     -1.22463       -1.4004997      0.17586975     0.11861288    -617.66219      0.11872562    -617.95756    
       125   12.5           1403.8857     -11812.389      689859.03     -1.2698319     -1.4493248      0.17949295     0.11979575    -616.31744      0.1199098     -616.59575    
       126   12.6           1432.5073     -12233.448      688441.39     -1.3150956     -1.498248       0.18315235     0.12098008    -614.82229      0.12109539    -615.083      
       127   12.7           1461.4107     -12654.877      686866.55     -1.3603993     -1.547247       0.18684778     0.12216549    -613.18118      0.12228207    -613.42381    
       128   12.8           1490.6004     -13076.473      685140.34     -1.4057208     -1.5963006      0.19057982     0.12335163    -611.39916      0.12346945    -611.62331    
       129   12.9           1520.0875     -13498.031      683269.33     -1.4510383     -1.6453882      0.19434987     0.12453817    -609.48187      0.12465721    -609.68728    
       130   13             1549.8891     -13919.349      681260.75     -1.49633       -1.6944901      0.19816013     0.12572474    -607.43552      0.12584499    -607.62202    
       131   13.1           1580.0286     -14340.229      679122.51     -1.5415746     -1.7435883      0.20201361     0.12691103    -605.26683      0.12703246    -605.43441    
       132   13.2           1610.5357     -14760.48       676863.03     -1.5867516     -1.7926657      0.20591407     0.12809669    -602.98298      0.12821928    -603.13176    
       133   13.3           1641.4454     -15179.918      674491.15     -1.6318412     -1.8417072      0.20986601     0.1292814     -600.59136      0.12940513    -600.7218     
       134   13.4           1672.7982     -15598.369      672015.88     -1.6768247     -1.8906993      0.2138746      0.13046487    -598.09941      0.13058971    -598.21255    
       135   13.5           1704.6392     -16015.671      669446.12     -1.7216846     -1.9396302      0.21794562     0.13164678    -595.51411      0.13177272    -595.61223    
       136   13.6           1737.0174     -16431.673      666790.17     -1.7664049     -1.9884902      0.22208531     0.13282686    -592.84151      0.13295387    -592.92911    
       137   13.7           1769.9843     -16846.24       664055.27     -1.8109708     -2.0372711      0.22630027     0.13400483    -590.08618      0.13413289    -590.17129    
       138   13.8           1803.5918     -17259.249      661247.16     -1.8553693     -2.0859664      0.23059713     0.13518044    -587.25086      0.13530952    -587.3464     
       139   13.9           1837.8902     -17670.589      658369.88     -1.8995883     -2.1345707      0.23498234     0.13635344    -584.33669      0.13648351    -584.46108    
       140   14             1872.9253     -18080.163      655426.05     -1.9436175     -2.1830792      0.23946173     0.1375236     -581.34431      0.13765466    -581.52047    
       141   14.1           1908.7368     -18487.883      652417.85     -1.9874474     -2.2314878      0.24404039     0.13869072    -578.27577      0.13882273    -578.52788    
       142   14.2           1945.3586     -18893.674      649348.57     -2.0310699     -2.2797926      0.24872264     0.13985457    -575.13671      0.13998754    -575.4848     
       143   14.3           1982.8224     -19297.471      646223.96     -2.0744781     -2.3279907      0.25351256     0.14101499    -571.93764      0.1411489     -572.39178    
       144   14.4           2021.1642     -19699.222      643052.48     -2.1176663     -2.3760811      0.25841473     0.1421718     -568.69259      0.14230666    -569.24978    
       145   14.5           2060.4299     -20098.888      639843.28     -2.1606305     -2.4240655      0.26343502     0.14332484    -565.41445      0.14346066    -566.06149    
       146   14.6           2100.6776     -20496.444      636602.11     -2.2033678     -2.4719486      0.26858087     0.14447398    -562.10842      0.14461076    -562.83151    
       147   14.7           2141.9727     -20891.873      633326.73     -2.2458764     -2.519737       0.27386062     0.14561908    -558.76727      0.14575685    -559.56417    
       148   14.8           2184.3729     -21285.162      630003.6      -2.2881549     -2.5674366      0.27928168     0.14676004    -555.37115      0.14689881    -556.25894    
       149   14.9           2227.9081     -21676.295      626607.84     -2.3302017     -2.6150495      0.28484784     0.14789676    -551.8928       0.14803656    -552.90584    
       150   15             2272.5592     -22065.245      623108.31     -2.3720138     -2.6625705      0.29055669     0.14902914    -548.30645      0.14917001    -549.4846     
       151   15.1           2318.2501     -22451.972      619477.69     -2.413587      -2.7099855      0.29639846     0.15015711    -544.59826      0.15029908    -545.96964    
       152   15.2           2364.8597     -22836.43       615704.4      -2.4549162     -2.7572739      0.3023577      0.15128059    -540.77527      0.15142372    -542.3389     
       153   15.3           2412.255      -23218.569      611799.29     -2.4959961     -2.8044135      0.3084174      0.1523995     -536.86757      0.15254385    -538.58118    
       154   15.4           2460.3287     -23598.355      607791.27     -2.5368232     -2.8513871      0.31456384     0.15351378    -532.91948      0.15365943    -534.69781    
       155   15.5           2509.0216     -23975.778      603711.74     -2.5773961     -2.8981855      0.32078944     0.15462338    -528.97191      0.1547704     -530.69653    
       156   15.6           2558.3119     -24350.84       599574.57     -2.6177153     -2.9448067      0.32709141     0.15572825    -525.04491      0.15587671    -526.57856    
       157   15.7           2608.1704     -24723.552      595363.37     -2.6577818     -2.9912479      0.33346605     0.15682836    -521.13072      0.15697831    -522.32702    
       158   15.8           2658.5041     -25093.907      591041.26     -2.697595      -3.0374964      0.33990144     0.15792369    -517.20252      0.15807515    -517.91441    
       159   15.9           2709.1319     -25461.876      586581.62     -2.7371517     -3.0835261      0.34637442     0.15901421    -513.23172      0.15916719    -513.33336    
       160   16             2759.824      -25827.421      581990.64     -2.7764478     -3.1293034      0.35285563     0.16009992    -509.19702      0.16025438    -508.62107    
       161   16.1           2810.3741     -26190.517      577303.86     -2.8154805     -3.1747992      0.35931867     0.1611808     -505.08204      0.16133666    -503.85414    
       162   16.2           2860.6522     -26551.161      572574.45     -2.8542498     -3.2199968      0.36574696     0.16225685    -500.8784       0.16241398    -499.1259     
       163   16.3           2910.6283     -26909.382      567868.73     -2.8927585     -3.2648952      0.37213662     0.16332806    -496.60304      0.16348631    -494.52217    
       164   16.4           2960.3902     -27265.242      563260.07     -2.9310135     -3.3095124      0.37849889     0.16439442    -492.30945      0.16455362    -490.10096    
       165   16.5           3010.1567     -27618.846      558807.18     -2.969026      -3.3538877      0.38486176     0.16545592    -488.06944      0.16561591    -485.87812    
       166   16.6           3060.246      -27970.331      554524.13     -3.0068105     -3.3980764      0.3912659      0.16651257    -483.93621      0.16667317    -481.81973    
       167   16.7           3110.9781     -28319.837      550363.24     -3.0443825     -3.4421347      0.39775222     0.16756438    -479.91638      0.16772544    -477.84544    
       168   16.8           3162.5409     -28667.478      546225.82     -3.0817539     -3.4860986      0.40434476     0.16861137    -475.96695      0.16877274    -473.84976    
       169   16.9           3214.8893     -29013.309      542004.62     -3.1189307     -3.5299684      0.41103772     0.16965357    -472.01916      0.16981511    -469.74368    
       170   17             3267.7411     -29357.335      537636.08     -3.1559135     -3.5737086      0.41779506     0.17069101    -468.01014      0.17085256    -465.50123    
       171   17.1           3320.673      -29699.539      533125.7      -3.1927005     -3.6172631      0.42456263     0.17172371    -463.899        0.17188512    -461.17864    
       172   17.2           3373.2502     -30039.918      528540.99     -3.2292912     -3.660576       0.43128486     0.1727517     -459.67851      0.17291279    -456.88924    
       173   17.3           3425.1444     -30378.498      523992.2      -3.2656886     -3.7036083      0.43791977     0.17377498    -455.39985      0.17393559    -452.74768    
       174   17.4           3476.2294     -30715.361      519593.44     -3.3019013     -3.7463525      0.44445121     0.17479357    -451.17129      0.17495354    -448.81144    
       175   17.5           3526.6042     -31050.637      515402.77     -3.3379435     -3.7888353      0.45089185     0.17580749    -447.09971      0.17596667    -445.04964    
       176   17.6           3576.487      -31384.472      511386.49     -3.3738308     -3.8311004      0.45726958     0.17681674    -443.22657      0.17697505    -441.35633    
       177   17.7           3626.0389     -31716.971      507442.97     -3.4095744     -3.8731794      0.46360501     0.17782138    -439.51388      0.1779787     -437.60522    
       178   17.8           3675.2573     -32048.173      503468.12     -3.4451786     -3.9150764      0.4698978      0.17882143    -435.88119      0.17897769    -433.71603    
       179   17.9           3723.989      -32378.076      499395.86     -3.4806431     -3.9567715      0.47612837     0.17981696    -432.24734      0.17997204    -429.67289    
       180   18             3771.9726     -32706.653      495189.02     -3.5159652     -3.9982285      0.48226328     0.180808      -428.54318      0.18096177    -425.49201    
       181   18.1           3818.8597     -33033.856      490831.22     -3.5511395     -4.0393975      0.48825799     0.18179459    -424.71396      0.18194689    -421.20532    
       182   18.2           3864.2668     -33359.618      486337.79     -3.5861589     -4.0802224      0.4940635      0.18277676    -420.72848      0.1829274     -416.87155    
       183   18.3           3907.8609     -33683.877      481758.93     -3.6210168     -4.120654       0.49963719     0.18375452    -416.58924      0.18390331    -412.57224    
       184   18.4           3949.4306     -34006.595      477178.27     -3.6557089     -4.160661       0.50495205     0.18472787    -412.34652      0.18487459    -408.39327    
       185   18.5           3988.941      -34327.77       472703.22     -3.6902353     -4.200239       0.51000364     0.18569682    -408.09795      0.18584126    -404.40837    
       186   18.6           4026.7153     -34647.387      468625.2      -3.7245941     -4.2394273      0.51483325     0.18666134    -404.07787      0.18680334    -400.81653    
       187   18.7           4063.8994     -34966.462      465603.09     -3.7588947     -4.2784821      0.5195874      0.18762144    -400.74366      0.18776086    -398.10226    
       188   18.8           4096.1875     -35281.315      456326.69     -3.7927413     -4.3164569      0.52371558     0.18857718    -393.27141      0.18871391    -390.64157    
       189   18.9           4123.0245     -35595.212      452537.2      -3.8264853     -4.3536321      0.5271468      0.18952831    -389.46265      0.18966227    -387.49355    
       190   19             4149.1017     -35907.815      448947.17     -3.8600902     -4.3905711      0.53048089     0.19047486    -385.76843      0.19060599    -384.55284    
       191   19.1           4174.6545     -36219.125      445504.95     -3.8935559     -4.4273039      0.53374793     0.19141684    -382.15958      0.19154516    -381.76185    
       192   19.2           4199.822      -36529.213      442194.86     -3.9268904     -4.4638561      0.5369657      0.19235429    -378.63522      0.19247987    -379.08381    
       193   19.3           4224.6853     -36838.12       439030.25     -3.9600979     -4.5002425      0.54014459     0.19328723    -375.22213      0.19341019    -376.49392    
       194   19.4           4250.1494     -37145.668      437012.12     -3.9931594     -4.5365596      0.54340029     0.19421571    -372.69908      0.19433623    -374.59916    
       195   19.5           4271.959      -37453.666      429362.65     -4.0262691     -4.5724578      0.54618874     0.19513982    -365.98202      0.19525811    -368.99444    
       196   19.6           4288.4079     -37757.333      425665.71     -4.0589133     -4.6072051      0.54829179     0.19605935    -362.35374      0.19617569    -365.87066    
       197   19.7           4303.219      -38059.954      422443.95     -4.091445      -4.6416305      0.55018546     0.19697432    -359.17269      0.19708904    -362.95262    
       198   19.8           4316.8985     -38361.099      419563.31     -4.1238181     -4.6757526      0.55193445     0.19788478    -356.31241      0.19799819    -360.2129     
       199   19.9           4330.3272     -38661.678      417607.31     -4.1561304     -4.7097817      0.55365137     0.19879079    -354.14508      0.19890321    -358.13278    
       200   20             4340.0688     -38958.573      410216.29     -4.1880466     -4.7429435      0.55489687     0.19969247    -348.53817      0.19980422    -351.84444    
       201   20.1           4345.5019     -39255.815      407142.19     -4.2200002     -4.7755917      0.55559152     0.20058967    -345.7969       0.200701      -348.9173     
       202   20.2           4348.4789     -39547.508      401633.23     -4.2513571     -4.8073292      0.55597214     0.20148245    -341.39412      0.20159362    -344.07507    
       203   20.3           4346.5929     -39842.052      395465.91     -4.2830206     -4.8387516      0.55573101     0.20237077    -336.60865      0.20248196    -339.01996    
       204   20.4           4339.6618     -40131.129      390348.39     -4.3140963     -4.8689412      0.55484483     0.20325454    -332.6204       0.20336593    -334.78099    
       205   20.5           4325.8521     -40414.162      380828.13     -4.3445224     -4.8976017      0.55307921     0.20413373    -325.86005      0.20424548    -326.93853    
       206   20.6           4301.9219     -40693.584      369073.53     -4.3745603     -4.9245799      0.55001962     0.20500812    -316.52003      0.20512028    -318.17298    
       207   20.7           4273.6614     -40968.526      367105.82     -4.4041165     -4.9505229      0.5464064      0.20587729    -314.6699       0.20598999    -316.33784    
       208   20.8           4245.9277     -41242.46       362934.86     -4.4335645     -4.976425       0.54286051     0.2067414     -311.1242       0.20685472    -312.99291    
       209   20.9           4217.7845     -41513.157      359733.33     -4.4626644     -5.0019267      0.53926229     0.20760044    -308.235        0.20771452    -310.429      
       210   21             4188.7073     -41779.108      354950.05     -4.4912542     -5.0267988      0.53554464     0.20845449    -304.04442      0.20856946    -306.88641    
       211   21.1           4157.4373     -42043.428      349067.1      -4.5196686     -5.0512152      0.53154663     0.2093035     -299.21917      0.20941954    -302.23426    
       212   21.2           4125.8135     -42303.1        347060.99     -4.5475832     -5.0750866      0.52750338     0.21014739    -297.29515      0.21026469    -300.52004    
       213   21.3           4096.1752     -42562.444      345651.69     -4.5754627     -5.0991767      0.523714       0.21098629    -295.92789      0.21110505    -299.22838    
       214   21.4           4065.0536     -42816.836      338377.12     -4.6028098     -5.1225448      0.51973497     0.21182035    -290.67706      0.21194078    -293.62664    
       215   21.5           4032.748      -43068.698      337672.08     -4.629885      -5.1454896      0.51560455     0.21264946    -290.03286      0.21277171    -292.85143    
       216   21.6           3999.8859     -43318.331      331366.57     -4.6567206     -5.1681235      0.511403       0.21347383    -285.67752      0.21359806    -287.94881    
       217   21.7           3964.4206     -43563.396      326616.45     -4.6830651     -5.1899337      0.5068686      0.21429339    -282.31017      0.2144197     -284.01812    
       218   21.8           3929.2826     -43806.515      324530.74     -4.7092004     -5.2115764      0.50237604     0.21510813    -280.83906      0.2152366     -282.15293    
       219   21.9           3895.7824     -44046.221      321785.52     -4.7349687     -5.2330616      0.49809291     0.21591822    -278.8695       0.21604887    -279.97478    
       220   22             3863.1594     -44284.415      318259.58     -4.7605746     -5.2544965      0.49392191     0.21672374    -276.29349      0.2168566     -276.92315    
       221   22.1           3832.6955     -44519.01       317701.99     -4.7857936     -5.2758205      0.49002696     0.21752475    -275.94857      0.2176598     -276.00846    
       222   22.2           3804.5053     -44754.082      313756.59     -4.8110638     -5.2974865      0.48642273     0.21832147    -273.22746      0.21845864    -272.62451    
       223   22.3           3773.8118     -44982.698      304926.24     -4.8356401     -5.3181385      0.48249843     0.21911392    -267.20477      0.21925311    -265.54314    
       224   22.4           3736.292      -45206.918      293530.61     -4.8597437     -5.337445       0.47770135     0.21990189    -258.37017      0.22004292    -257.66615    
       225   22.5           3694.245      -45425.922      288392.38     -4.8832866     -5.355612       0.47232546     0.22068495    -254.32712      0.22082771    -253.98762    
       226   22.6           3651.6106     -45641.303      283788.63     -4.9064401     -5.3733145      0.46687446     0.22146304    -250.85957      0.22160745    -250.3566     
       227   22.7           3610.0357     -45853.91       281903.22     -4.9292953     -5.3908543      0.46155893     0.22223615    -249.5292       0.22238213    -248.76464    
       228   22.8           3571.2855     -46064.17       280685.93     -4.9518983     -5.4085028      0.45660455     0.22300443    -248.73848      0.22315188    -247.69043    
       229   22.9           3535.6655     -46272.578      279077.88     -4.9743021     -5.4263525      0.45205038     0.22376806    -247.61301      0.22391686    -246.37716    
       230   23             3501.4902     -46478.314      273896.56     -4.9964187     -5.4440996      0.44768091     0.2245272     -243.78484      0.2246772     -242.51721    
       231   23.1           3466.6113     -46680.016      268003.94     -5.0181017     -5.4613232      0.4432215      0.22528177    -239.47434      0.22543286    -238.16527    
       232   23.2           3427.5813     -46878.083      258023.86     -5.0393939     -5.4776252      0.43823133     0.22603169    -232.29834      0.22618373    -230.81225    
       233   23.3           3385.2649     -47070.36       254253.83     -5.0600637     -5.4928847      0.432821       0.22677664    -229.51987      0.2269295     -228.1011     
       234   23.4           3344.7908     -47261.004      252379.28     -5.080558      -5.5082042      0.42764621     0.22751665    -228.40761      0.22767019    -226.54468    
       235   23.5           3306.213      -47448.928      248485.13     -5.1007598     -5.5234736      0.42271386     0.22825188    -225.9331       0.22840595    -223.27985    
       236   23.6           3269.1203     -47633.712      246445.76     -5.120624      -5.5385954      0.4179714      0.22898236    -224.50799      0.22913674    -221.52701    
       237   23.7           3235.7671     -47816.647      246826.18     -5.1402896     -5.5539966      0.41370704     0.22970823    -225.01607      0.22986268    -221.52769    
       238   23.8           3205.0632     -47999.073      242511.26     -5.1599003     -5.5696817      0.40978141     0.23042974    -222.46464      0.230584      -217.98564    
       239   23.9           3173.0803     -48176.123      235994.58     -5.1789332     -5.5846254      0.40569227     0.23114692    -218.3876       0.23130065    -213.06982    
       240   24             3141.3691     -48350.871      234667.33     -5.1977186     -5.5993565      0.40163784     0.23185968    -217.78429      0.23201247    -211.87359    
       241   24.1           3113.5345     -48524.473      235119.45     -5.2163809     -5.61446        0.39807907     0.23256817    -218.31059      0.23271962    -212.0428     
       242   24.2           3091.0117     -48696.961      236853.88     -5.2349233     -5.6301227      0.39519943     0.23327266    -219.69456      0.23342231    -213.10445    
       243   24.3           3072.6611     -48869.617      234438.82     -5.2534838     -5.646337       0.39285323     0.23397346    -218.37009      0.23412086    -210.88992    
       244   24.4           3054.1794     -49037.933      227784.72     -5.2715778     -5.6620681      0.39049026     0.23467066    -214.108        0.23481529    -205.57195    
       245   24.5           3036.2646     -49204.306      226368.22     -5.2894629     -5.6776627      0.38819978     0.23536412    -213.1175       0.2355054     -204.60806    
       246   24.6           3022.1876     -49369.873      225115.49     -5.3072614     -5.6936613      0.38639997     0.23605395    -211.69577      0.23619131    -204.20169    
       247   24.7           3010.8809     -49533.641      220418.16     -5.3248664     -5.7098208      0.38495435     0.23674024    -207.49021      0.23687321    -201.12715    
       248   24.8           3002.4802     -49695.129      218185.55     -5.3422264     -5.7261067      0.38388029     0.23742283    -205.33275      0.23755105    -199.75583    
       249   24.9           2997.2422     -49855.741      215614.42     -5.3594922     -5.7427028      0.38321059     0.23810176    -203.80059      0.23822492    -197.85297    
       250   25             2994.1401     -50014.623      214589.66     -5.376572      -5.759386       0.38281398     0.23877708    -203.08387      0.23889486    -197.22833    
       251   25.1           2994.8624     -50173.542      215352.7      -5.3936557     -5.7765621      0.38290632     0.23944893    -203.11315      0.23956102    -198.1513     
       252   25.2           2997.5219     -50332.598      209860.74     -5.4107543     -5.7940006      0.38324635     0.24011748    -198.35856      0.24022365    -194.60978    
       253   25.3           2998.72       -50487.844      204373.85     -5.4274433     -5.8108428      0.38339953     0.24078253    -194.15873      0.24088266    -190.70546    
       254   25.4           2997.5839     -50641.761      199730.06     -5.4439893     -5.8272436      0.38325427     0.24144393    -190.7744       0.24153792    -187.59254    
       255   25.5           2995.1385     -50794.813      198841.06     -5.4604424     -5.843384       0.38294162     0.24210159    -190.01584      0.24218936    -187.12005    
       256   25.6           2991.8402     -50946.653      196503.24     -5.4767652     -5.8592851      0.38251992     0.24275564    -188.18072      0.24283713    -185.77024    
       257   25.7           2987.6109     -51097.493      194498.39     -5.4929805     -5.8749597      0.38197919     0.2434061     -185.7971       0.24348129    -184.91583    
       258   25.8           2982.7424     -51247.858      190697.06     -5.5091447     -5.8905014      0.38135672     0.24405296    -182.32509      0.24412196    -182.20417    
       259   25.9           2976.6211     -51395.457      189379.18     -5.5250116     -5.9055857      0.38057409     0.24469611    -181.07407      0.24475909    -181.13934    
       260   26             2968.1042     -51544.458      185280.38     -5.5410292     -5.9205144      0.37948517     0.24533564    -177.47306      0.24539276    -178.07885    
       261   26.1           2955.1648     -51688.595      180632.33     -5.5565239     -5.9343547      0.37783081     0.24597143    -173.40402      0.24602291    -174.5091     
       262   26.2           2938.3104     -51831.79       177344.26     -5.5719174     -5.9475933      0.3756759      0.24660333    -170.62234      0.2466494     -171.78724    
       263   26.3           2920.2116     -51972.836      177310.96     -5.5870798     -5.9604417      0.37336189     0.24723129    -170.15487      0.2472722     -171.57697    
       264   26.4           2903.499      -52113.933      178771.44     -5.6022478     -5.973473       0.37122511     0.24785545    -170.63567      0.24789146    -172.64039    
       265   26.5           2886.9668     -52254.414      177151.78     -5.6173496     -5.986461       0.36911139     0.24847603    -168.71472      0.24850743    -171.59636    
       266   26.6           2868.8148     -52392.66       176457.19     -5.6322109     -5.9990015      0.36679058     0.24909303    -167.58171      0.24912018    -171.1403     
       267   26.7           2850.2686     -52530.573      177971.21     -5.6470366     -6.0114559      0.36441937     0.24970653    -168.10922      0.24972983    -172.27557    
       268   26.8           2832.3747     -52667.577      176764.99     -5.6617645     -6.0238961      0.36213155     0.25031674    -166.90243      0.25033663    -171.13933    
       269   26.9           2816.1954     -52803.045      175061.76     -5.6763273     -6.0363903      0.36006296     0.25092371    -165.41325      0.25094063    -169.68143    
       270   27             2803.0735     -52937.661      173479.5      -5.6907985     -6.0491838      0.35838527     0.25152748    -164.33914      0.25154185    -168.22273    
       271   27.1           2792.5468     -53071.126      171850.75     -5.705146      -6.0621854      0.35703938     0.25212811    -163.67879      0.25214031    -166.53075    
       272   27.2           2784.2064     -53203.627      171696.95     -5.7193899     -6.0753629      0.35597303     0.25272569    -164.08806      0.25273602    -165.97336    
       273   27.3           2778.4009     -53335.931      172248.38     -5.7336126     -6.0888434      0.35523077     0.25332041    -164.84681      0.25332906    -166.05049    
       274   27.4           2775.0166     -53467.844      170804.84     -5.7477932     -6.1025913      0.35479807     0.25391246    -163.97747      0.25391959    -164.74839    
       275   27.5           2772.6613     -53598.664      167085.82     -5.7618564     -6.1163533      0.35449693     0.25450191    -161.40864      0.25450761    -161.66958    
       276   27.6           2770.8842     -53727.933      165995.7      -5.7757528     -6.1300225      0.35426972     0.25508868    -160.8218       0.25509301    -160.37964    
       277   27.7           2771.436      -53857.218      166264.4      -5.7896509     -6.1439912      0.35434028     0.25567285    -160.90624      0.25567582    -160.48531    
       278   27.8           2775.2288     -53986.579      166411.84     -5.8035572     -6.1583824      0.3548252      0.25625456    -160.51679      0.25625616    -160.92999    
       279   27.9           2779.9632     -54116.042      163225.84     -5.8174745     -6.172905       0.35543052     0.2568339     -157.6685       0.25683421    -159.05863    
       280   28             2781.1056     -54243.805      158270.5      -5.831209      -6.1867856      0.35557658     0.25741076    -153.92085      0.25740992    -155.37076    
       281   28.1           2778.5068     -54369.439      156013.79     -5.8447147     -6.199959       0.3552443      0.25798496    -151.96766      0.25798312    -153.66237    
       282   28.2           2775.845      -54495.073      154682.85     -5.8582203     -6.2131243      0.35490398     0.25855645    -150.64892      0.25855378    -152.65375    
       283   28.3           2774.3051     -54620.298      153076.99     -5.871682      -6.2263891      0.3547071      0.25912527    -149.2318       0.25912195    -151.30537    
       284   28.4           2771.576      -54745.192      153439.95     -5.8851082     -6.2394663      0.35435817     0.25969141    -149.30397      0.25968763    -151.27207    
       285   28.5           2764.8275     -54869.712      157031.95     -5.898494      -6.2519893      0.35349534     0.26025501    -151.87647      0.26025095    -153.33948    
       286   28.6           2754.5417     -54994.894      160146.62     -5.9119511     -6.2641314      0.35218027     0.2608164     -154.23154      0.26081218    -155.01438    
       287   28.7           2741.2752     -55120.496      162565.64     -5.9254534     -6.2759374      0.35048408     0.26137588    -156.08943      0.26137158    -156.16422    
       288   28.8           2724.0283     -55245.43       163826.03     -5.9388838     -6.2871628      0.34827899     0.26193373    -156.7311       0.26192935    -156.66702    
       289   28.9           2703.2631     -55369.813      163748        -5.9522549     -6.297879       0.34562407     0.26249007    -156.28507      0.26248561    -156.39051    
       290   29             2680.0432     -55493.473      164082.7      -5.9655483     -6.3082036      0.3426553      0.26304498    -156.13123      0.26304045    -156.46068    
       291   29.1           2655.5716     -55616.29       163699.86     -5.9787511     -6.3182776      0.3395265      0.26359852    -155.43614      0.26359395    -155.94948    
       292   29.2           2631.4527     -55738.132      163863.27     -5.9918492     -6.328292       0.33644279     0.26415072    -155.24511      0.26414615    -155.64691    
       293   29.3           2608.3372     -55859.339      165444.53     -6.0048789     -6.3383663      0.33348738     0.26470166    -156.00818      0.26469713    -156.35938    
       294   29.4           2586.2498     -55979.903      168276.56     -6.0178396     -6.348503       0.33066341     0.26525147    -157.65249      0.26524701    -158.04117    
       295   29.5           2566.2526     -56100.462      170261.86     -6.0307997     -6.3589064      0.32810668     0.26580038    -159.04256      0.26579602    -158.91385    
       296   29.6           2549.4714     -56220.815      173733.86     -6.0437376     -6.3696987      0.32596112     0.26634858    -161.38317      0.26634429    -160.93034    
       297   29.7           2533.3349     -56342.407      171080.26     -6.0568087     -6.3807067      0.32389801     0.26689632    -159.45053      0.26689208    -159.02683    
       298   29.8           2513.5969     -56460.791      168715.64     -6.0695351     -6.3909095      0.32137441     0.26744351    -156.90112      0.26743928    -158.00972    
       299   29.9           2491.4009     -56577.764      166333.55     -6.0821097     -6.4006462      0.31853656     0.26798999    -154.15575      0.26798585    -156.9431     
       300   30             2470.851      -56693.766      164582.71     -6.0945798     -6.410489       0.31590916     0.2685356     -152.15963      0.26853179    -156.00412    
       301   30.1           2453.2219     -56809.333      162019.24     -6.1070033     -6.4206584      0.3136552      0.26908023    -149.85274      0.26907707    -154.10173    
       302   30.2           2437.2388     -56922.896      158621.33     -6.1192114     -6.4308231      0.3116117      0.26962375    -146.74701      0.26962159    -151.68492    
       303   30.3           2421.8897     -57034.914      155033.63     -6.1312533     -6.4409026      0.30964924     0.27016599    -143.58463      0.2701652     -149.04621    
       304   30.4           2407.0869     -57145.144      152237.7      -6.143103      -6.4508597      0.30775665     0.27070673    -141.34734      0.27070776    -146.60795    
       305   30.5           2393.9249     -57253.94       149774.37     -6.1547986     -6.4608724      0.30607382     0.27124588    -139.5143       0.27124913    -144.32573    
       306   30.6           2383.8989     -57361.992      148586.13     -6.1664141     -6.4712061      0.30479195     0.27178336    -138.35557      0.27178917    -143.30424    
       307   30.7           2376.7985     -57469.822      149120.27     -6.1780059     -6.48189        0.30388413     0.27231914    -138.37058      0.27232789    -143.50829    
       308   30.8           2370.7611     -57577.06       150111.36     -6.1895339     -6.4926461      0.30311222     0.27285333    -138.37922      0.27286537    -144.28842    
       309   30.9           2365.8018     -57683.829      151070.28     -6.2010117     -6.5034898      0.30247816     0.27338599    -138.28519      0.27340175    -145.31169    
       310   31             2363.0359     -57791.029      152730.55     -6.2125356     -6.5146601      0.30212453     0.27391719    -139.2811       0.27393718    -146.40326    
       311   31.1           2361.6137     -57898.63       154113.68     -6.2241027     -6.5260454      0.3019427      0.2744471     -140.12874      0.27447183    -147.09019    
       312   31.2           2360.4183     -58005.961      155706.57     -6.2356408     -6.5374307      0.30178985     0.27497587    -141.13447      0.27500581    -147.76055    
       313   31.3           2359.6796     -58113.49       156240.67     -6.2472002     -6.5488956      0.30169541     0.27550363    -141.42314      0.27553923    -147.91221    
       314   31.4           2359.5589     -58220.885      155892.94     -6.2587452     -6.5604252      0.30167997     0.27603049    -141.07046      0.27607217    -147.45241    
       315   31.5           2360.4438     -58327.951      154332.44     -6.2702547     -6.5720478      0.30179311     0.27655647    -139.86789      0.27660463    -145.96822    
       316   31.6           2362.523      -58435.031      154611.54     -6.2817658     -6.5838248      0.30205895     0.27708153    -139.91254      0.27713654    -145.85076    
       317   31.7           2363.8899     -58542.563      159192.06     -6.2933255     -6.5955592      0.30223372     0.27760573    -143.01748      0.27766794    -148.88898    
       318   31.8           2363.4954     -58650.802      163642.63     -6.3049612     -6.6071444      0.30218328     0.2781294     -146.12307      0.27819914    -151.84008    
       319   31.9           2363.1868     -58760.081      165732.04     -6.3167087     -6.6188525      0.30214382     0.27865285    -147.64629      0.27873043    -152.93348    
       320   32             2363.0061     -58870.098      168466.83     -6.3285356     -6.6306563      0.30212072     0.27917627    -149.46999      0.27926196    -154.66953    
       321   32.1           2362.2066     -58980.145      168355.84     -6.3403655     -6.642384       0.3020185      0.27969984    -149.28244      0.2797939     -154.45572    
       322   32.2           2360.9854     -59090.175      165374.21     -6.3521938     -6.6540562      0.30186235     0.28022358    -146.96893      0.28032626    -152.18881    
       323   32.3           2357.8019     -59199.165      161005.59     -6.3639102     -6.6653656      0.30145534     0.28074732    -143.36837      0.28085887    -149.00197    
       324   32.4           2351.5234     -59306.495      156548.26     -6.3754483     -6.6761009      0.3006526      0.28127079    -139.76397      0.28139149    -145.76078    
       325   32.5           2343.4195     -59412.8        153320.21     -6.386876      -6.6864925      0.29961648     0.28179371    -137.24451      0.28192386    -143.41111    
       326   32.6           2334.5083     -59518.351      150358.74     -6.3982228     -6.6966999      0.29847714     0.28231591    -135.04569      0.28245582    -141.00592    
       327   32.7           2324.3137     -59622.579      147169.86     -6.4094272     -6.706601       0.29717372     0.28283724    -132.78856      0.2829872     -138.02912    
       328   32.8           2313.7912     -59725.258      142740.03     -6.4204652     -6.7162936      0.29582838     0.28335756    -129.68937      0.2835178     -134.03992    
       329   32.9           2304.2898     -59826.777      137364.25     -6.4313785     -6.7259921      0.29461358     0.28387666    -125.77694      0.28404731    -129.54039    
       330   33             2295.1421     -59926.466      133394.85     -6.4420951     -6.7355391      0.293444       0.28439425    -122.98478      0.2845754     -126.11074    
       331   33.1           2285.1701     -60024.982      131093.67     -6.4526856     -6.7448546      0.29216904     0.28491015    -121.45089      0.28510182    -123.85801    
       332   33.2           2273.3088     -60122.429      130549.71     -6.4631612     -6.7538137      0.29065252     0.28542431    -121.31902      0.28562647    -122.81825    
       333   33.3           2258.812      -60219.209      131537.23     -6.4735649     -6.762364       0.28879904     0.28593677    -122.39134      0.2861493     -122.9832     
       334   33.4           2242.7855     -60315.678      133059.77     -6.4839353     -6.7706853      0.28674998     0.28644771    -123.50385      0.28667043    -123.92605    
       335   33.5           2227.5469     -60412.077      134378.66     -6.4942983     -6.7790999      0.28480166     0.28695729    -123.9533       0.28718999    -125.07754    
       336   33.6           2214.5168     -60508.322      135106.73     -6.5046446     -6.7877804      0.28313571     0.28746561    -123.94378      0.28770815    -125.90192    
       337   33.7           2204.0509     -60604.108      135819.03     -6.5149416     -6.7967392      0.2817976      0.28797273    -124.0269       0.28822507    -126.67273    
       338   33.8           2195.6099     -60700.07       137216.24     -6.5252575     -6.8059759      0.28071838     0.28847872    -124.70277      0.28874085    -127.82234    
       339   33.9           2187.4671     -60796.312      139595.86     -6.5356035     -6.8152808      0.27967728     0.28898369    -126.15738      0.28925567    -129.48207    
       340   34             2177.2641     -60892.244      138966.46     -6.5459162     -6.824289       0.27837278     0.28948783    -125.63238      0.28976972    -128.71019    
       341   34.1           2164.3983     -60986.798      135975.96     -6.5560808     -6.8328086      0.27672783     0.28999114    -123.46294      0.29028298    -126.17986    
       342   34.2           2149.6205     -61080.672      134375.57     -6.5661722     -6.8410106      0.27483843     0.29049347    -122.22425      0.29079528    -124.69378    
       343   34.3           2132.0922     -61173.656      134024.87     -6.576168      -6.8487653      0.27259736     0.29099477    -121.68448      0.29130654    -124.25534    
       344   34.4           2111.5536     -61265.491      132985.35     -6.5860402     -6.8560116      0.26997141     0.29149504    -120.51324      0.29181678    -123.58517    
       345   34.5           2090.6358     -61356.275      130722.1      -6.5957995     -6.8630965      0.26729698     0.29199424    -118.6283       0.29232597    -122.07014    
       346   34.6           2071.4988     -61445.885      129060.76     -6.6054327     -6.8702829      0.26485022     0.29249224    -117.03616      0.29283405    -121.1951     
       347   34.7           2054.2202     -61534.746      126876.8      -6.6149852     -6.8776262      0.26264108     0.29298896    -115.03608      0.293341      -119.88362    
       348   34.8           2038.2766     -61622.389      125396.6      -6.6244068     -6.8850094      0.26060262     0.29348428    -113.55372      0.29384674    -119.04628    
       349   34.9           2023.6922     -61709.087      124804.73     -6.6337269     -6.8924648      0.25873794     0.29397813    -112.84045      0.29435127    -118.76701    
       350   35             2011.0292     -61795.307      124477.54     -6.6429955     -6.9001144      0.25711892     0.2944705     -112.51003      0.2948546     -118.582      
       351   35.1           2000.4926     -61880.902      123897.28     -6.652197      -6.9079688      0.25577178     0.29496143    -112.05715      0.29535679    -118.10934    
       352   35.2           1991.7979     -61965.895      122903.34     -6.6613338     -6.9159939      0.25466011     0.29545094    -111.33902      0.29585784    -117.18279    
       353   35.3           1984.4624     -62050.108      122072.01     -6.6703866     -6.9241088      0.25372224     0.29593901    -110.88499      0.29635773    -116.27203    
       354   35.4           1978.1743     -62133.955      121718.12     -6.6794002     -6.9323185      0.25291828     0.29642568    -110.82758      0.29685643    -115.77235    
       355   35.5           1972.6522     -62217.415      121758.82     -6.6883721     -6.9405844      0.25221225     0.296911      -111.1816       0.29735395    -115.45094    
       356   35.6           1967.4361     -62300.687      121697.19     -6.6973239     -6.9488692      0.25154536     0.29739505    -111.52372      0.29785032    -114.95443    
       357   35.7           1962.3373     -62383.673      121712.36     -6.7062449     -6.9571383      0.25089345     0.29787792    -111.87933      0.29834554    -114.54362    
       358   35.8           1958.0322     -62466.391      121470.4      -6.715137      -6.96548        0.25034302     0.2983597     -111.9258       0.29883963    -114.04825    
       359   35.9           1955.1363     -62548.856      121087.54     -6.724002      -6.9739747      0.24997277     0.29884045    -111.84502      0.2993326     -113.50341    
       360   36             1953.1121     -62630.96       120589.64     -6.7328282     -6.9825422      0.24971396     0.29932021    -111.7195       0.29982445    -112.85041    
       361   36.1           1951.1588     -62712.859      120513.36     -6.7416323     -6.9910965      0.24946422     0.29979901    -111.86824      0.30031519    -112.44787    
       362   36.2           1949.0299     -62794.631      121148.41     -6.7504229     -6.9996149      0.24919204     0.30027692    -112.51298      0.30080481    -112.55229    
       363   36.3           1946.7965     -62876.433      122011.76     -6.7592166     -7.0081231      0.24890649     0.30075405    -113.34486      0.3012934     -112.86071    
       364   36.4           1944.5763     -62958.25       122164.27     -6.7680118     -7.0166345      0.24862263     0.30123051    -113.66804      0.30178101    -112.69902    
       365   36.5           1942.2976     -63039.878      120884.82     -6.7767869     -7.0251182      0.24833128     0.30170638    -112.92847      0.3022677     -111.52577    
       366   36.6           1939.4191     -63120.896      118662.99     -6.7854963     -7.0334596      0.24796325     0.30218162    -111.49291      0.30275339    -109.66644    
       367   36.7           1935.1949     -63201.234      116511.77     -6.7941326     -7.0415558      0.24742317     0.30265615    -110.13184      0.30323797    -107.78454    
       368   36.8           1929.1858     -63281.149      115526.26     -6.8027235     -7.0493784      0.24665489     0.30312989    -109.63972      0.30372132    -106.73709    
       369   36.9           1920.9522     -63360.637      115478.02     -6.8112685     -7.0568707      0.24560218     0.30360283    -109.82339      0.3042034     -106.3845     
       370   37             1910.149      -63439.527      115919.87     -6.8197492     -7.0639701      0.24422094     0.30407503    -110.33464      0.30468421    -106.45379    
       371   37.1           1897.4734     -63517.991      115862.86     -6.8281841     -7.0707844      0.24260032     0.30454658    -110.47359      0.30516384    -106.16706    
       372   37.2           1884.2803     -63596.221      114981.27     -6.8365938     -7.0775073      0.24091352     0.30501754    -110.03169      0.3056423     -105.1047     
       373   37.3           1871.3835     -63673.868      113565.86     -6.8449408     -7.0842054      0.2392646      0.3054879     -109.07759      0.30611954    -103.59593    
       374   37.4           1858.9798     -63750.699      111988.79     -6.8532002     -7.0908789      0.23767874     0.30595762    -107.98845      0.30659548    -101.91457    
       375   37.5           1847.1012     -63826.66       110745.55     -6.8613659     -7.0975259      0.23616001     0.30642663    -107.10949      0.30707002    -100.62605    
       376   37.6           1835.5773     -63901.856      109322.08     -6.8694496     -7.1041362      0.23468662     0.30689489    -106.01386      0.30754309    -99.334487    
       377   37.7           1823.9463     -63976.254      106912.31     -6.8774473     -7.1106468      0.23319955     0.30736235    -104.20136      0.30801464    -97.322836    
       378   37.8           1811.6829     -64049.542      104106.46     -6.8853258     -7.1169574      0.23163162     0.30782888    -102.15937      0.30848453    -95.032115    
       379   37.9           1798.4991     -64121.616      101693.91     -6.8930737     -7.1230197      0.22994602     0.30829432    -100.45139      0.30895261    -93.093683    
       380   38             1784.4436     -64192.904      99437.216     -6.9007371     -7.1288861      0.22814895     0.30875858    -98.849845      0.30941876    -91.32204     
       381   38.1           1769.724      -64263.065      97462.077     -6.9082795     -7.1345465      0.22626699     0.30922156    -97.44049       0.30988289    -89.813075    
       382   38.2           1754.56       -64332.265      95698.189     -6.9157185     -7.1400467      0.2243282      0.30968317    -96.212849      0.31034493    -88.470025    
       383   38.3           1739.245      -64400.581      94497.837     -6.9230625     -7.1454326      0.22237012     0.31014336    -95.413149      0.31080482    -87.562197    
       384   38.4           1724.1317     -64468.307      94007.332     -6.930343      -7.1507808      0.22043781     0.31060211    -95.098013      0.31126254    -87.226603    
       385   38.5           1709.5197     -64535.37       94286.122     -6.9375523     -7.1561219      0.21856961     0.31105943    -95.322007      0.31171814    -87.522146    
       386   38.6           1695.6357     -64601.945      94985.382     -6.9447091     -7.1615036      0.21679448     0.31151542    -95.784845      0.31217171    -88.198689    
       387   38.7           1682.7231     -64668.279      95521.89      -6.95184       -7.1669836      0.21514354     0.31197017    -96.082361      0.31262338    -88.746312    
       388   38.8           1670.9774     -64734.28       95994.762     -6.9589351     -7.1725769      0.21364181     0.31242375    -96.282324      0.31307327    -89.241225    
       389   38.9           1660.4647     -64799.956      96505.579     -6.9659952     -7.1782929      0.21229771     0.31287623    -96.478555      0.3135215     -89.751707    
       390   39             1651.2443     -64865.397      96769.476     -6.9730302     -7.184149       0.21111884     0.31332768    -96.463803      0.31396815    -90.079272    
       391   39.1           1643.381      -64930.472      97093.487     -6.9800257     -7.1901392      0.21011348     0.31377815    -96.532795      0.31441334    -90.418916    
       392   39.2           1636.8987     -64995.287      97353.005     -6.9869933     -7.196278       0.20928469     0.31422769    -96.585749      0.31485713    -90.67693     
       393   39.3           1631.7821     -65059.91       97823.249     -6.9939403     -7.2025709      0.20863052     0.31467634    -96.818237      0.31529961    -91.050605    
       394   39.4           1627.8627     -65124.358      98712.626     -7.0008685     -7.2089979      0.2081294      0.31512417    -97.354209      0.31574087    -91.690795    
       395   39.5           1624.7889     -65188.913      99662.291     -7.0078081     -7.2155445      0.2077364      0.31557128    -97.851106      0.31618102    -92.422106    
       396   39.6           1622.0499     -65253.52       100856.94     -7.0147535     -7.2221397      0.20738621     0.31601775    -98.422335      0.31662017    -93.38705     
       397   39.7           1619.0502     -65318.221      102478.7      -7.0217087     -7.2287114      0.20700268     0.31646366    -99.235295      0.31705846    -94.725638    
       398   39.8           1615.4714     -65383.051      104283.4      -7.028678      -7.2352231      0.20654512     0.31690915    -100.18922      0.31749605    -96.251212    
       399   39.9           1611.4187     -65448.068      105361.71     -7.0356673     -7.2416943      0.20602697     0.31735432    -100.66856      0.31793314    -97.314555    
       400   40             1606.8482     -65512.875      105745.37     -7.0426341     -7.2480767      0.20544261     0.31779925    -100.75629      0.31836985    -97.874974    
       401   40.1           1601.6089     -65577.812      106149.46     -7.0496148     -7.2543876      0.20477274     0.31824398    -100.79042      0.31880626    -98.491218    
       402   40.2           1595.7774     -65642.712      106954.35     -7.0565916     -7.2606187      0.20402716     0.31868855    -101.08958      0.31924248    -99.295418    
       403   40.3           1589.4951     -65707.489      107498.47     -7.0635551     -7.266779       0.20322393     0.319133      -101.10938      0.31967859    -99.832593    
       404   40.4           1583          -65772.084      107181.53     -7.070499      -7.2728925      0.20239351     0.31957736    -100.57974      0.32011467    -99.632205    
       405   40.5           1576.5089     -65836.39       106193.11     -7.0774119     -7.2789755      0.20156359     0.32002161    -99.524123      0.32055074    -98.913799    
       406   40.6           1570.2658     -65900.2        105048.6      -7.0842715     -7.2850369      0.20076538     0.32046567    -98.385109      0.32098673    -98.075274    
       407   40.7           1564.6804     -65963.552      103854.64     -7.0910818     -7.2911331      0.20005126     0.32090946    -97.275131      0.3214226     -97.190615    
       408   40.8           1560.0542     -66026.5        102617.4      -7.0978488     -7.2973086      0.19945978     0.32135289    -96.202474      0.32185829    -96.238451    
       409   40.9           1556.2544     -66089.038      101340.26     -7.1045716     -7.3035455      0.19897397     0.32179591    -95.122623      0.32229373    -95.222419    
       410   41             1552.8362     -66151.135      100130.26     -7.111247      -7.309784       0.19853694     0.32223843    -94.026739      0.32272884    -94.261704    
       411   41.1           1549.3716     -66212.788      99049.641     -7.1178747     -7.3159687      0.19809397     0.32268037    -92.923334      0.32316357    -93.424381    
       412   41.2           1545.6886     -66273.996      98160.3       -7.1244545     -7.3220776      0.19762309     0.32312168    -91.899067      0.32359786    -92.773842    
       413   41.3           1542.0196     -66334.808      97451.37      -7.1309919     -7.3281458      0.19715398     0.32356227    -91.005718      0.32403167    -92.318051    
       414   41.4           1538.7993     -66395.345      96823.891     -7.1374996     -7.3342418      0.19674225     0.32400211    -90.231858      0.32446501    -91.951895    
       415   41.5           1536.4586     -66455.609      96252.612     -7.1439779     -7.3404209      0.19644299     0.32444116    -89.568024      0.32489785    -91.615292    
       416   41.6           1535.2046     -66515.673      95832.854     -7.1504349     -7.3467175      0.19628265     0.32487938    -89.046407      0.32533021    -91.38739     
       417   41.7           1534.9113     -66575.584      95516.447     -7.1568753     -7.3531204      0.19624515     0.32531676    -88.616152      0.32576208    -91.228436    
       418   41.8           1535.3328     -66635.367      95227.622     -7.1633019     -7.3596009      0.19629904     0.3257533     -88.211361      0.32619348    -91.073257    
       419   41.9           1536.2128     -66695.026      94887.084     -7.1697153     -7.3661269      0.19641156     0.32618901    -87.7554        0.32662443    -90.851123    
       420   42             1537.2806     -66754.485      94582.604     -7.1761071     -7.3726552      0.19654808     0.32662386    -87.351972      0.32705494    -90.55344     
       421   42.1           1538.3945     -66813.89       94153.051     -7.1824932     -7.3791837      0.1966905      0.32705787    -86.753903      0.327485      -90.212573    
       422   42.2           1539.5148     -66873.166      93975.922     -7.1888653     -7.3856991      0.19683374     0.327491      -86.380575      0.32791461    -90.000573    
[...]
     10895   1089.5         278.03745     -70051.962     -14673.774     -7.530586      -7.5661343      0.03554831     1.873786       27.959724     -0.010205873   -1.0845143    
     10896   1089.6         274.50554     -70051.308     -15842.243     -7.5305156     -7.5656124      0.035096739    1.8739304      29.880883     -0.010212394   -0.91434277   
     10897   1089.7         273.13849     -70050.873     -16354.01      -7.5304689     -7.5653908      0.034921956    1.8740749      30.475596     -0.010218799   -0.65913562   
     10898   1089.8         274.86594     -70050.741     -15859.009     -7.5304546     -7.5655975      0.035142819    1.8742193      29.262423     -0.010225121   -0.38738914   
     10899   1089.9         276.90462     -70050.481     -14930.045     -7.5304267     -7.5658302      0.035403473    1.8743637      27.383475     -0.01023139    -0.21123499   
     10900   1090           277.39108     -70050.006     -14283.121     -7.5303756     -7.5658413      0.035465669    1.8745082      26.182547     -0.010237627   -0.15771298   
     10901   1090.1         276.90227     -70049.658     -13993.898     -7.5303382     -7.5657414      0.035403173    1.8746526      25.770038     -0.010243839   -0.20430056   
     10902   1090.2         276.21874     -70049.352     -13830.39      -7.5303054     -7.5656212      0.03531578     1.8747971      25.635279     -0.010250021   -0.28327683   
     10903   1090.3         275.51879     -70049.135     -13710.328     -7.5302821     -7.5655083      0.035226289    1.8749415      25.528253     -0.010256163   -0.33296002   
     10904   1090.4         274.84075     -70048.848     -13600.044     -7.5302511     -7.5653907      0.035139598    1.875086       25.480947     -0.010262258   -0.4256142    
     10905   1090.5         274.22825     -70048.548     -13512.214     -7.5302189     -7.5652802      0.035061286    1.8752304      25.425524     -0.010268298   -0.48710328   
     10906   1090.6         273.6603      -70048.148     -13366.436     -7.5301759     -7.5651646      0.034988672    1.8753749      25.321595     -0.010274273   -0.61119081   
     10907   1090.7         273.13441     -70047.837     -13391.11      -7.5301425     -7.5650639      0.034921434    1.8755193      25.325299     -0.01028017    -0.55604295   
     10908   1090.8         272.62222     -70047.634     -13522.1       -7.5301206     -7.5649766      0.034855949    1.8756638      25.422001     -0.010285995   -0.41154453   
     10909   1090.9         272.08163     -70047.356     -13718.725     -7.5300908     -7.5648776      0.034786832    1.8758082      25.515932     -0.010291765   -0.1799456    
     10910   1091           271.48798     -70047.124     -13982.724     -7.5300658     -7.5647768      0.034710932    1.8759527      25.685125     -0.010297508    0.070699758  
     10911   1091.1         270.80785     -70046.686     -14151.854     -7.5300188     -7.5646427      0.034623974    1.8760971      25.73266      -0.010303253    0.32557938   
     10912   1091.2         270.02299     -70046.32      -14430.975     -7.5299794     -7.564503       0.034523626    1.8762416      25.884264     -0.010309031    0.63279589   
     10913   1091.3         269.04126     -70046.041     -14850.456     -7.5299495     -7.5643476      0.034398108    1.876386       26.109535     -0.010314877    1.1104501    
     10914   1091.4         267.75494     -70045.66      -15311.401     -7.5299084     -7.5641421      0.034233646    1.8765305      26.351815     -0.010320848    1.6488067    
     10915   1091.5         266.12661     -70045.159     -15803.405     -7.5298546     -7.56388        0.034025457    1.8766749      26.578568     -0.010327008    2.2953274    
     10916   1091.6         264.33351     -70044.686     -16271.635     -7.5298037     -7.5635999      0.0337962      1.8768194      26.814695     -0.010333432    2.910889     
     10917   1091.7         262.92046     -70044.15      -16363.826     -7.5297461     -7.5633617      0.033615536    1.8769638      26.867914     -0.010340193    3.0922954    
     10918   1091.8         262.34559     -70043.772     -16267.543     -7.5297055     -7.5632476      0.033542036    1.8771083      26.897614     -0.010347312    2.9626899    
     10919   1091.9         262.59883     -70043.236     -15706.409     -7.5296479     -7.5632223      0.033574414    1.8772527      26.577414     -0.010354773    2.3632392    
     10920   1092           263.21106     -70042.828     -14985.739     -7.529604      -7.5632567      0.033652691    1.8773971      26.232211     -0.010362505    1.4852852    
     10921   1092.1         263.64734     -70042.369     -14283.913     -7.5295547     -7.5632632      0.033708471    1.8775416      25.885079     -0.010370405    0.62946403   
     10922   1092.2         263.78848     -70041.891     -13777.998     -7.5295032     -7.5632298      0.033726516    1.877686       25.628694     -0.01037837     0.01948725   
     10923   1092.3         263.76705     -70041.345     -13388.004     -7.5294446     -7.5631684      0.033723776    1.8778305      25.420154     -0.01038633    -0.44650048   
     10924   1092.4         263.77448     -70040.999     -13278.095     -7.5294074     -7.5631321      0.033724726    1.8779749      25.409564     -0.010394228   -0.63069481   
     10925   1092.5         263.93138     -70040.458     -13047.499     -7.5293492     -7.563094       0.033744787    1.8781194      25.202467     -0.010402044   -0.8411046    
     10926   1092.6         264.23719     -70040.073     -13100.365     -7.5293078     -7.5630917      0.033783886    1.8782638      25.237519     -0.010409752   -0.80230855   
     10927   1092.7         264.70641     -70039.572     -13070.971     -7.529254      -7.5630979      0.033843878    1.8784083      25.217197     -0.010417357   -0.84238686   
     10928   1092.8         265.35301     -70039.083     -13127.572     -7.5292015     -7.563128       0.033926548    1.8785527      25.236604     -0.010424854   -0.80362093   
     10929   1092.9         266.18265     -70038.672     -13258.29      -7.5291572     -7.5631898      0.034032622    1.8786972      25.305986     -0.010432249   -0.70242137   
     10930   1093           267.17243     -70038.076     -13326.958     -7.5290932     -7.5632523      0.034159169    1.8788416      25.299368     -0.010439553   -0.64186043   
     10931   1093.1         268.29995     -70037.571     -13446.141     -7.5290388     -7.5633422      0.034303328    1.8789861      25.327061     -0.010446774   -0.53201338   
     10932   1093.2         269.52872     -70037.039     -13529.415     -7.5289817     -7.5634421      0.034460431    1.8791305      25.334649     -0.010453924   -0.46273775   
     10933   1093.3         270.8302      -70036.522     -13555.574     -7.5289261     -7.5635529      0.034626832    1.879275       25.296988     -0.010461012   -0.44205101   
     10934   1093.4         272.0925      -70036.04      -13553.894     -7.5288744     -7.5636626      0.034788222    1.8794194      25.347789     -0.010468041   -0.53691234   
     10935   1093.5         273.15386     -70035.532     -13495.105     -7.5288197     -7.5637436      0.034923922    1.8795639      25.371886     -0.010474998   -0.68669352   
     10936   1093.6         273.8065      -70035.04      -13493.249     -7.5287668     -7.5637742      0.035007364    1.8797083      25.570249     -0.010481867   -0.89476528   
     10937   1093.7         273.54451     -70034.659     -13752.43      -7.5287258     -7.5636997      0.034973868    1.8798528      26.260815     -0.010488624   -1.1530543    
     10938   1093.8         271.73246     -70034.14      -14310.321     -7.52867       -7.5634122      0.034742189    1.8799972      27.656922     -0.010495236   -1.5501547    
     10939   1093.9         268.99489     -70033.259     -14866.917     -7.5285754     -7.5629676      0.034392179    1.8801417      29.000187     -0.010501659   -1.9011496    
     10940   1094           267.58345     -70032.243     -15005.481     -7.5284661     -7.5626778      0.03421172     1.8802861      29.440442     -0.010507851   -2.0840444    
     10941   1094.1         268.99649     -70031.579     -15012.826     -7.5283948     -7.5627872      0.034392384    1.8804305      29.279058     -0.010513789   -1.9419624    
     10942   1094.2         272.46227     -70031.091     -14713.413     -7.5283423     -7.5631778      0.034835499    1.880575       28.30473      -0.010519492   -1.5463346    
     10943   1094.3         275.63984     -70030.563     -14233.179     -7.5282855     -7.5635273      0.035241765    1.8807194      26.865347     -0.010525006   -1.0135285    
     10944   1094.4         277.2364      -70029.863     -14053.748     -7.5282103     -7.5636562      0.035445892    1.8808639      26.085449     -0.010530395   -0.59671504   
     10945   1094.5         277.68928     -70029.101     -14033.106     -7.5281284     -7.5636322      0.035503795    1.8810083      25.756104     -0.010535708   -0.34357393   
     10946   1094.6         277.43925     -70028.47      -14409.045     -7.5280606     -7.5635324      0.035471828    1.8811528      25.867795     -0.010540974    0.18250337   
     10947   1094.7         276.62115     -70027.867     -14884.617     -7.5279957     -7.5633629      0.035367229    1.8812972      26.098278     -0.010546256    0.76401459   
     10948   1094.8         275.30936     -70027.136     -15502.902     -7.5279171     -7.5631166      0.035199512    1.8814417      26.38499      -0.010551623    1.5391738    
     10949   1094.9         273.8215      -70026.363     -15958.453     -7.527834      -7.5628433      0.035009283    1.8815861      26.621074     -0.010557167    2.0734933    
     10950   1095           272.73287     -70025.687     -16325.932     -7.5277614     -7.5626315      0.034870096    1.8817306      26.826458     -0.010562949    2.4681056    
     10951   1095.1         272.36333     -70025.021     -16563.304     -7.5276898     -7.5625127      0.034822849    1.881875       26.980639     -0.010569018    2.6896284    
     10952   1095.2         272.73964     -70024.269     -16603.373     -7.5276089     -7.5624799      0.034870962    1.8820195      27.032048     -0.010575397    2.7084739    
     10953   1095.3         273.61223     -70023.636     -16442.944     -7.5275409     -7.5625234      0.034982526    1.8821639      26.999661     -0.010582091    2.4421444    
     10954   1095.4         274.49073     -70022.977     -16083.506     -7.52747       -7.5625648      0.035094847    1.8823084      26.843474     -0.010589066    1.9670125    
     10955   1095.5         275.05242     -70022.281     -15750.132     -7.5273952     -7.5625619      0.035166661    1.8824528      26.682889     -0.010596266    1.5651591    
     10956   1095.6         275.30371     -70021.531     -15429.245     -7.5273146     -7.5625134      0.035198789    1.8825973      26.491161     -0.010603644    1.2674447    
     10957   1095.7         275.31769     -70020.728     -15184.81      -7.5272283     -7.5624288      0.035200576    1.8827417      26.360767     -0.010611164    1.0030202    
     10958   1095.8         275.16952     -70020.28      -15145.589     -7.5271801     -7.5623618      0.035181632    1.8828862      26.386772     -0.010618795    0.94318141   
     10959   1095.9         274.90713     -70019.811     -15122.425     -7.5271297     -7.5622777      0.035148085    1.8830306      26.406019     -0.010626529    0.90510251   
     10960   1096           274.55323     -70019.193     -15075.048     -7.5270633     -7.5621661      0.035102837    1.8831751      26.429031     -0.010634362    0.78813707   
     10961   1096.1         274.14753     -70018.58      -15029.818     -7.5269973     -7.5620483      0.035050966    1.8833195      26.435593     -0.01064228     0.69977474   
     10962   1096.2         273.72696     -70017.862     -14930.395     -7.5269202     -7.5619174      0.034997194    1.8834639      26.390453     -0.010650273    0.5762369    
     10963   1096.3         273.32424     -70017.056     -14815.21      -7.5268336     -7.5617793      0.034945706    1.8836084      26.321907     -0.010658325    0.44847677   
     10964   1096.4         272.962       -70016.331     -14750.203     -7.5267556     -7.561655       0.034899391    1.8837528      26.30167      -0.010666422    0.35247167   
     10965   1096.5         272.65458     -70015.601     -14707.513     -7.5266771     -7.5615372      0.034860086    1.8838973      26.296868     -0.010674552    0.27644869   
     10966   1096.6         272.38211     -70014.915     -14786.16      -7.5266034     -7.5614287      0.03482525     1.8840417      26.28848      -0.010682707    0.4124398    
     10967   1096.7         272.14057     -70014.173     -14823.503     -7.5265236     -7.5613179      0.034794368    1.8841862      26.309396     -0.010690902    0.44093424   
     10968   1096.8         271.95538     -70013.326     -14832.212     -7.5264325     -7.5612032      0.03477069     1.8843306      26.302631     -0.01069914     0.45977177   
     10969   1096.9         271.852       -70012.569     -14872.844     -7.5263512     -7.5611087      0.034757473    1.8844751      26.316494     -0.010707424    0.5026358    
     10970   1097           271.82888     -70011.839     -14860.035     -7.5262727     -7.5610272      0.034754516    1.8846195      26.365602     -0.010715759    0.43028154   
     10971   1097.1         271.89723     -70011.071     -14778.917     -7.5261901     -7.5609534      0.034763255    1.884764       26.338376     -0.010724136    0.33651487   
     10972   1097.2         272.07647     -70010.302     -14619.957     -7.5261074     -7.5608936      0.034786173    1.8849084      26.279502     -0.010732544    0.16372224   
     10973   1097.3         272.30836     -70009.615     -14529.607     -7.5260336     -7.5608495      0.03481582     1.8850529      26.28784      -0.010740963    0.062219854  
     10974   1097.4         272.4986      -70008.54      -14104.339     -7.525918      -7.5607582      0.034840144    1.8851973      25.975322     -0.01074938    -0.27459478   
     10975   1097.5         272.56134     -70007.766     -13841.535     -7.5258348     -7.560683       0.034848165    1.8853418      25.959858     -0.010757757   -0.635658     
     10976   1097.6         272.41914     -70006.982     -13571.709     -7.5257506     -7.5605806      0.034829985    1.8854862      26.005804     -0.010766049   -1.0762276    
     10977   1097.7         272.01775     -70006.181     -13291.069     -7.5256644     -7.5604431      0.034778664    1.8856307      26.128284     -0.010774205   -1.6221489    
     10978   1097.8         271.39348     -70005.449     -13004.51      -7.5255858     -7.5602846      0.034698849    1.8857751      26.369872     -0.010782161   -2.2886848    
     10979   1097.9         270.65541     -70004.674     -12840.899     -7.5255025     -7.5601069      0.034604484    1.8859196      26.647181     -0.010789837   -2.7968692    
     10980   1098           270.05264     -70003.924     -12858.945     -7.5254218     -7.5599493      0.034527417    1.886064       26.973976     -0.010797175   -3.0489759    
     10981   1098.1         269.8487      -70002.97      -13002.638     -7.5253193     -7.5598207      0.034501342    1.8862085      27.0632       -0.010804144   -2.8445866    
     10982   1098.2         270.19583     -70002.078     -13396.75      -7.5252234     -7.5597691      0.034545724    1.8863529      27.068676     -0.01081077    -2.1221301    
     10983   1098.3         271.3077      -70001.193     -13737.266     -7.5251282     -7.5598161      0.034687882    1.8864973      26.857788     -0.010817137   -1.2999967    
     10984   1098.4         273.26607     -70000.524     -14026.46      -7.5250563     -7.5599946      0.034938268    1.8866418      26.603422     -0.010823344   -0.57183022   
     10985   1098.5         275.80744     -69999.705     -14083.331     -7.5249682     -7.5602314      0.035263194    1.8867862      26.271392     -0.010829477   -0.17818226   
     10986   1098.6         278.35115     -69998.905     -13917.13      -7.5248822     -7.5604707      0.035588418    1.8869307      25.920428     -0.010835582   -0.17670612   
     10987   1098.7         280.27796     -69997.964     -13641.029     -7.5247812     -7.5606159      0.035834769    1.8870751      25.573135     -0.01084166    -0.36169153   
     10988   1098.8         281.43048     -69997.005     -13444.019     -7.524678      -7.5606601      0.035982123    1.8872196      25.352512     -0.010847689   -0.5251734    
     10989   1098.9         281.98915     -69996.126     -13396.843     -7.5245836     -7.5606371      0.036053553    1.887364       25.268046     -0.01085365    -0.54522089   
     10990   1099           282.22946     -69995.284     -13475.505     -7.524493      -7.5605773      0.036084277    1.8875085      25.288368     -0.01085954    -0.42191436   
     10991   1099.1         282.32944     -69994.306     -13427.841     -7.5243879     -7.5604849      0.03609706     1.8876529      25.251264     -0.010865373   -0.45399341   
     10992   1099.2         282.27435     -69993.492     -13454.369     -7.5243004     -7.5603904      0.036090017    1.8877974      25.22068      -0.010871147   -0.35881951   
     10993   1099.3         282.1155      -69992.519     -13400.121     -7.5241958     -7.5602655      0.036069706    1.8879418      25.193105     -0.010876872   -0.41433172   
     10994   1099.4         281.94216     -69991.843     -13576.365     -7.5241231     -7.5601707      0.036047544    1.8880863      25.387572     -0.010882543   -0.35760512   
     10995   1099.5         281.79335     -69990.977     -13629.415     -7.52403       -7.5600585      0.036028518    1.8882307      25.451937     -0.010888165   -0.33971569   
     10996   1099.6         281.69554     -69990.106     -13685.178     -7.5239364     -7.5599524      0.036016012    1.8883752      25.516688     -0.010893741   -0.32379843   
     10997   1099.7         281.65158     -69989.04      -13709.776     -7.5238218     -7.5598322      0.036010393    1.8885196      25.549454     -0.010899273   -0.33838695   
     10998   1099.8         281.66635     -69988.103     -13706.171     -7.5237211     -7.5597334      0.036012281    1.8886641      25.643819     -0.010904759   -0.46882456   
     10999   1099.9         281.75726     -69987.149     -13813.845     -7.5236185     -7.5596424      0.036023904    1.8888085      25.697642     -0.010910184   -0.36294276   
     11000   1100           281.9407      -69986.254     -13922.155     -7.5235223     -7.5595697      0.036047358    1.888953       25.78537      -0.01091556    -0.30128559   
Loop time of 179.727 on 64 procs for 10000 steps with 400 atoms

Performance: 0.481 ns/day, 49.924 hours/ns, 55.640 timesteps/s
6188.6% CPU use with 1 MPI tasks x 64 OpenMP threads

MPI task timing breakdown:
Section |  min time  |  avg time  |  max time  |%varavg| %total
---------------------------------------------------------------
Pair    | 177.78     | 177.78     | 177.78     |   0.0 | 98.92
Neigh   | 0.14529    | 0.14529    | 0.14529    |   0.0 |  0.08
Comm    | 0.058704   | 0.058704   | 0.058704   |   0.0 |  0.03
Output  | 0.84665    | 0.84665    | 0.84665    |   0.0 |  0.47
Modify  | 0.83605    | 0.83605    | 0.83605    |   0.0 |  0.47
Other   |            | 0.0601     |            |       |  0.03

Nlocal:            400 ave         400 max         400 min
Histogram: 1 0 0 0 0 0 0 0 0 0
Nghost:            809 ave         809 max         809 min
Histogram: 1 0 0 0 0 0 0 0 0 0
Neighs:          34747 ave       34747 max       34747 min
Histogram: 1 0 0 0 0 0 0 0 0 0

Total # of neighbors = 34747
Ave neighs/atom = 86.8675
Neighbor list builds = 58
Dangerous builds = 0
Total wall time: 0:03:25
