LAMMPS (23 Jun 2022 - Update 2)
  using 64 OpenMP thread(s) per MPI task
################################################################################
# GRAPHENE: POTENTIAL PROFILE
################################################################################
#
# Input script for lammps to calculate the potential energy in function of the
# distance between carbon atoms in a graphene layer.
#
# When using this script, make sure that lammps is installed with the USER-REAXC
# and the MANYBODY packages.
#
# Date: 28/03/2016
# Author: Jeroen Mulkers
# Mail: jeroen.mulkers@uantwerpen.be
#
################################################################################


# UNITS
# 'real' units are needed when using reax/c. A useful energy conversion factor
# is defined.
units        real
variable     fenergy equal 0.043 # Kcal/mole -> eV

# GRAPHENE SHEET
# The atom positions and the simulation box size will be read from a data file.
# Reactive force fields (reaxFF) are used to describe the interaction between
# the carbon atoms.(The pair_style reax is deprecated. so we use the modern
# reax/c implementation)
dimension    2
boundary     p p p
atom_style   charge
read_data    graphene_N400.dat
Reading data file ...
  orthogonal box = (0 0 -10) to (30 17.3205 10)
  1 by 1 by 1 MPI processor grid
  reading atoms ...
  400 atoms
  read_data CPU = 0.003 seconds
pair_style   reax/c NULL checkqeq no
pair_coeff   * * ffield.reax C
WARNING: Changed valency_val to valency_boc for X (src/REAXFF/reaxff_ffield.cpp:296)

# OUTPUT
# Calculate the average total energy per atom and the distance 'a' between
# carbon atoms in two ways (should give the same size)
variable     energy equal etotal/atoms*${fenergy}
variable     energy equal etotal/atoms*0.043
variable     a1 equal lx/3
variable     a2 equal ly/sqrt(3)
thermo_style custom step etotal pe ke v_energy v_a1 v_a2 pxx pyy
dump dumpID all xyz 50 dump.xyz

# DEFORMATION
fix          1 all deform 1 x erate 0.001 y erate 0.001 remap x
thermo       1
run          2000

CITE-CITE-CITE-CITE-CITE-CITE-CITE-CITE-CITE-CITE-CITE-CITE-CITE

Your simulation uses code contributions which should be cited:

- pair reaxff command:

@Article{Aktulga12,
 author = {H. M. Aktulga, J. C. Fogarty, S. A. Pandit, A. Y. Grama},
 title = {Parallel reactive molecular dynamics: Numerical methods and algorithmic techniques},
 journal = {Parallel Computing},
 year =    2012,
 volume =  38,
 pages =   {245--259}
}

CITE-CITE-CITE-CITE-CITE-CITE-CITE-CITE-CITE-CITE-CITE-CITE-CITE

WARNING: No fixes with time integration, atoms won't move (src/verlet.cpp:60)
Neighbor list info ...
  update every 1 steps, delay 10 steps, check yes
  max neighbors/atom: 2000, page size: 100000
  master list distance cutoff = 12
  ghost atom cutoff = 12
  binsize = 6, bins = 5 3 4
  1 neighbor lists, perpetual/occasional/extra = 1 0 0
  (1) pair reax/c, perpetual
      attributes: half, newton off, ghost
      pair build: half/bin/newtoff/ghost
      stencil: full/ghost/bin/2d
      bin: standard
Per MPI rank memory allocation (min/avg/max) = 92.68 | 92.68 | 92.68 Mbytes
   Step         TotEng         PotEng         KinEng        v_energy         v_a1           v_a2           Pxx            Pyy      
         0   27646.233      27646.233      0              2.97197        10             9.9999953      28547991       28548000     
         1   27646.233      27646.233      0              2.97197        10.01          10.009995      28490980       28490989     
         2   27215.276      27215.276      0              2.9256422      10.02          10.019995      28235689       28235698     
         3   26787.796      26787.796      0              2.8796881      10.03          10.029995      27977379       27977387     
         4   26363.844      26363.844      0              2.8341132      10.04          10.039995      27716257       27716265     
         5   25943.469      25943.469      0              2.788923       10.05          10.049995      27452550       27452558     
         6   25526.717      25526.717      0              2.7441221      10.06          10.059995      27186500       27186508     
         7   25113.63       25113.63       0              2.6997153      10.07          10.069995      26918368       26918376     
         8   24704.246      24704.246      0              2.6557064      10.08          10.079995      26648429       26648437     
         9   24298.597      24298.597      0              2.6120992      10.09          10.089995      26376975       26376983     
        10   23896.714      23896.714      0              2.5688967      10.1           10.099995      26104309       26104317     
        11   23498.62       23498.62       0              2.5261017      10.11          10.109995      25830752       25830759     
        12   23104.336      23104.336      0              2.4837161      10.12          10.119995      25556633       25556641     
        13   22713.875      22713.875      0              2.4417415      10.13          10.129995      25282295       25282303     
        14   22327.246      22327.246      0              2.4001789      10.14          10.139995      25008091       25008099     
        15   21944.453      21944.453      0              2.3590287      10.15          10.149995      24734382       24734389     
        16   21565.493      21565.493      0              2.3182905      10.16          10.159995      24461535       24461543     
        17   21190.36       21190.36       0              2.2779637      10.17          10.169995      24189927       24189934     
        18   20819.038      20819.038      0              2.2380466      10.18          10.179995      23919936       23919943     
        19   20451.509      20451.509      0              2.1985372      10.19          10.189995      23651945       23651952     
        20   20087.746      20087.746      0              2.1594327      10.2           10.199995      23386338       23386345     
        21   19727.719      19727.719      0              2.1207297      10.21          10.209995      23123500       23123507     
        22   19371.387      19371.387      0              2.0824241      10.22          10.219995      22863813       22863820     
        23   19018.709      19018.709      0              2.0445112      10.23          10.229995      22607657       22607664     
        24   18669.634      18669.634      0              2.0069857      10.24          10.239995      22355408       22355415     
        25   18324.106      18324.106      0              1.9698414      10.25          10.249995      22107436       22107442     
        26   17982.063      17982.063      0              1.9330718      10.26          10.259995      21864101       21864107     
        27   17643.494      17643.494      0              1.8966756      10.27          10.269995      21622326       21622332     
        28   17308.263      17308.263      0              1.8606382      10.28          10.279995      21389927       21389934     
        29   16976.288      16976.288      0              1.8249509      10.29          10.289995      21163128       21163134     
        30   16647.487      16647.487      0              1.7896049      10.3           10.299995      20942247       20942253     
        31   16321.772      16321.772      0              1.7545905      10.31          10.309995      20727589       20727595     
        32   15999.05       15999.05       0              1.7198979      10.32          10.319995      20519443       20519449     
        33   15679.223      15679.223      0              1.6855165      10.33          10.329995      20318082       20318088     
        34   15362.189      15362.189      0              1.6514353      10.34          10.339995      20123762       20123768     
        35   15047.841      15047.841      0              1.6176429      10.35          10.349995      19936719       19936725     
        36   14736.069      14736.069      0              1.5841274      10.36          10.359995      19757169       19757175     
        37   14426.759      14426.759      0              1.5508766      10.37          10.369995      19585309       19585315     
        38   14119.795      14119.795      0              1.517878       10.38          10.379995      19421316       19421322     
        39   13815.056      13815.056      0              1.4851185      10.39          10.389995      19265343       19265349     
        40   13512.419      13512.419      0              1.452585       10.4           10.399995      19117524       19117529     
        41   13211.76       13211.76       0              1.4202642      10.41          10.409995      18977968       18977974     
        42   12912.951      12912.951      0              1.3881422      10.42          10.419995      18846766       18846772     
        43   12615.863      12615.863      0              1.3562053      10.43          10.429995      18723982       18723988     
        44   12320.368      12320.368      0              1.3244396      10.44          10.439995      18609661       18609666     
        45   12026.335      12026.335      0              1.292831       10.45          10.449995      18503823       18503829     
        46   11733.631      11733.631      0              1.2613654      10.46          10.459995      18406469       18406475     
        47   11442.126      11442.126      0              1.2300286      10.47          10.469995      18317577       18317582     
        48   11151.689      11151.689      0              1.1988066      10.48          10.479995      18237102       18237107     
        49   10862.188      10862.188      0              1.1676852      10.49          10.489995      18164981       18164986     
        50   10573.493      10573.493      0              1.1366505      10.5           10.499995      18101129       18101134     
        51   10285.476      10285.476      0              1.1056887      10.51          10.509995      18045442       18045447     
        52   9998.0096      9998.0096      0              1.074786       10.52          10.519995      17997797       17997802     
        53   9710.967       9710.967       0              1.043929       10.53          10.529995      17958052       17958058     
        54   9424.2251      9424.2251      0              1.0131042      10.54          10.539995      17926050       17926056     
        55   9137.6624      9137.6624      0              0.98229871     10.55          10.549995      17901615       17901621     
        56   8851.1602      8851.1602      0              0.95149972     10.56          10.559995      17884557       17884562     
        57   8564.6024      8564.6024      0              0.92069476     10.57          10.569995      17874670       17874675     
        58   8277.8762      8277.8762      0              0.88987169     10.58          10.579995      17871736       17871741     
        59   7990.8719      7990.8719      0              0.85901873     10.59          10.589995      17875523       17875529     
        60   7703.4835      7703.4835      0              0.82812447     10.6           10.599995      17885789       17885794     
        61   7415.6084      7415.6084      0              0.79717791     10.61          10.609995      17902279       17902284     
        62   7127.1483      7127.1483      0              0.76616844     10.62          10.619995      17924731       17924736     
        63   6838.0086      6838.0086      0              0.73508592     10.63          10.629995      17952872       17952878     
        64   6548.0989      6548.0989      0              0.70392063     10.64          10.639995      17986425       17986430     
        65   6257.3333      6257.3333      0              0.67266333     10.65          10.649995      18025102       18025107     
        66   5965.6301      5965.6301      0              0.64130524     10.66          10.659995      18068613       18068618     
        67   5672.9123      5672.9123      0              0.60983808     10.67          10.669995      18116663       18116668     
        68   5379.1075      5379.1075      0              0.57825405     10.68          10.679995      18168951       18168957     
        69   5084.1478      5084.1478      0              0.54654589     10.69          10.689995      18225177       18225183     
        70   4787.9701      4787.9701      0              0.51470679     10.7           10.699995      18285038       18285043     
        71   4490.5162      4490.5162      0              0.48273049     10.71          10.709995      18348228       18348233     
        72   4191.7326      4191.7326      0              0.45061125     10.72          10.719995      18414444       18414450     
        73   3891.5704      3891.5704      0              0.41834382     10.73          10.729995      18483384       18483389     
        74   3589.9858      3589.9858      0              0.38592347     10.74          10.739995      18554745       18554750     
        75   3286.9396      3286.9396      0              0.35334601     10.75          10.749995      18628229       18628234     
        76   2982.3974      2982.3974      0              0.32060772     10.76          10.759995      18703539       18703545     
        77   2676.3295      2676.3295      0              0.28770542     10.77          10.769995      18780385       18780391     
        78   2368.7109      2368.7109      0              0.25463642     10.78          10.779995      18858479       18858484     
        79   2059.521       2059.521       0              0.22139851     10.79          10.789995      18937539       18937544     
        80   1748.744       1748.744       0              0.18798998     10.8           10.799995      19017287       19017292     
        81   1436.3684      1436.3684      0              0.1544096      10.81          10.809995      19097454       19097459     
        82   1122.3871      1122.3871      0              0.12065661     10.82          10.819995      19177776       19177781     
        83   806.79718      806.79718      0              0.086730697    10.83          10.829995      19257996       19258002     
        84   489.59999      489.59999      0              0.052631999    10.84          10.839995      19337866       19337871     
        85   170.80085      170.80085      0              0.018361091    10.85          10.849995      19417144       19417149     
        86  -149.59098     -149.59098      0             -0.01608103     10.86          10.859995      19495597       19495603     
        87  -471.56244     -471.56244      0             -0.050692962    10.87          10.869995      19573002       19573007     
        88  -795.0968      -795.0968       0             -0.085472906    10.88          10.879995      19649142       19649147     
        89  -1120.1738     -1120.1738      0             -0.12041868     10.89          10.889995      19723811       19723816     
        90  -1446.7697     -1446.7697      0             -0.15552775     10.9           10.899995      19796812       19796818     
        91  -1774.8577     -1774.8577      0             -0.19079721     10.91          10.909995      19867958       19867963     
        92  -2104.4078     -2104.4078      0             -0.22622383     10.92          10.919995      19937069       19937075     
        93  -2435.3868     -2435.3868      0             -0.26180408     10.93          10.929995      20003979       20003984     
        94  -2767.759      -2767.759       0             -0.2975341      10.94          10.939995      20068527       20068532     
        95  -3101.4861     -3101.4861      0             -0.33340975     10.95          10.949995      20130565       20130571     
        96  -3436.5269     -3436.5269      0             -0.36942664     10.96          10.959995      20189954       20189960     
        97  -3772.8382     -3772.8382      0             -0.4055801      10.97          10.969995      20246565       20246570     
        98  -4110.3744     -4110.3744      0             -0.44186525     10.98          10.979995      20300277       20300282     
        99  -4449.0881     -4449.0881      0             -0.47827697     10.99          10.989995      20350981       20350987     
       100  -4788.9298     -4788.9298      0             -0.51480995     11             10.999995      20398577       20398582     
       101  -5129.8482     -5129.8482      0             -0.55145869     11.01          11.009995      20442973       20442979     
       102  -5471.7908     -5471.7908      0             -0.58821751     11.02          11.019995      20484090       20484096     
       103  -5814.7032     -5814.7032      0             -0.62508059     11.03          11.029995      20521854       20521860     
       104  -6158.5299     -6158.5299      0             -0.66204197     11.04          11.039995      20556202       20556208     
       105  -6503.2145     -6503.2145      0             -0.69909556     11.05          11.049995      20587081       20587087     
       106  -6848.6994     -6848.6994      0             -0.73623518     11.06          11.059995      20614445       20614451     
       107  -7194.9259     -7194.9259      0             -0.77345454     11.07          11.069995      20638256       20638263     
       108  -7541.8351     -7541.8351      0             -0.81074728     11.08          11.079995      20658487       20658493     
       109  -7889.3672     -7889.3672      0             -0.84810698     11.09          11.089995      20675116       20675122     
       110  -8237.462      -8237.462       0             -0.88552717     11.1           11.099995      20688130       20688137     
       111  -8586.059      -8586.059       0             -0.92300134     11.11          11.109995      20697524       20697531     
       112  -8935.0975     -8935.0975      0             -0.96052298     11.12          11.119995      20703299       20703306     
       113  -9284.5167     -9284.5167      0             -0.99808554     11.13          11.129995      20705463       20705470     
       114  -9634.2559     -9634.2559      0             -1.0356825      11.14          11.139995      20704032       20704039     
       115  -9984.2544     -9984.2544      0             -1.0733073      11.15          11.149995      20699026       20699033     
       116  -10334.452     -10334.452      0             -1.1109536      11.16          11.159995      20690472       20690479     
       117  -10684.788     -10684.788      0             -1.1486147      11.17          11.169995      20678403       20678410     
       118  -11035.204     -11035.204      0             -1.1862844      11.18          11.179995      20662857       20662864     
       119  -11385.64      -11385.64       0             -1.2239563      11.19          11.189995      20643877       20643884     
       120  -11736.038     -11736.038      0             -1.2616241      11.2           11.199995      20621509       20621517     
       121  -12086.34      -12086.34       0             -1.2992816      11.21          11.209995      20595807       20595815     
       122  -12436.49      -12436.49       0             -1.3369226      11.22          11.219995      20566825       20566833     
       123  -12786.43      -12786.43       0             -1.3745412      11.23          11.229995      20534622       20534630     
       124  -13136.106     -13136.106      0             -1.4121313      11.24          11.239995      20499262       20499270     
       125  -13485.463     -13485.463      0             -1.4496872      11.25          11.249995      20460810       20460818     
       126  -13834.448     -13834.448      0             -1.4872031      11.26          11.259995      20419333       20419342     
       127  -14183.008     -14183.008      0             -1.5246734      11.27          11.269995      20374903       20374912     
       128  -14531.094     -14531.094      0             -1.5620926      11.28          11.279995      20327593       20327601     
       129  -14878.653     -14878.653      0             -1.5994552      11.29          11.289995      20277476       20277485     
       130  -15225.638     -15225.638      0             -1.6367561      11.3           11.299995      20224628       20224637     
       131  -15572.001     -15572.001      0             -1.6739901      11.31          11.309995      20169128       20169137     
       132  -15917.696     -15917.696      0             -1.7111523      11.32          11.319995      20111052       20111062     
       133  -16262.676     -16262.676      0             -1.7482376      11.33          11.329995      20050480       20050490     
       134  -16606.898     -16606.898      0             -1.7852415      11.34          11.339995      19987491       19987501     
       135  -16950.319     -16950.319      0             -1.8221593      11.35          11.349995      19922165       19922174     
       136  -17292.898     -17292.898      0             -1.8589865      11.36          11.359995      19854580       19854590     
       137  -17634.594     -17634.594      0             -1.8957189      11.37          11.369995      19784817       19784827     
       138  -17975.369     -17975.369      0             -1.9323522      11.38          11.379995      19712954       19712964     
       139  -18315.184     -18315.184      0             -1.9688823      11.39          11.389995      19639069       19639079     
       140  -18654.004     -18654.004      0             -2.0053054      11.4           11.399995      19563241       19563251     
       141  -18991.792     -18991.792      0             -2.0416177      11.41          11.409995      19485545       19485556     
       142  -19328.515     -19328.515      0             -2.0778154      11.42          11.419995      19406058       19406068     
       143  -19664.141     -19664.141      0             -2.1138952      11.43          11.429995      19324853       19324864     
       144  -19998.637     -19998.637      0             -2.1498535      11.44          11.439995      19242005       19242016     
       145  -20331.973     -20331.973      0             -2.1856871      11.45          11.449995      19157584       19157596     
       146  -20664.12      -20664.12       0             -2.2213929      11.46          11.459995      19071661       19071673     
       147  -20995.05      -20995.05       0             -2.2569679      11.47          11.469995      18984305       18984317     
       148  -21324.736     -21324.736      0             -2.2924091      11.48          11.479995      18895582       18895594     
       149  -21653.151     -21653.151      0             -2.3277138      11.49          11.489995      18805558       18805570     
       150  -21980.272     -21980.272      0             -2.3628792      11.5           11.499995      18714295       18714307     
       151  -22306.074     -22306.074      0             -2.397903       11.51          11.509995      18621856       18621868     
       152  -22630.534     -22630.534      0             -2.4327824      11.52          11.519995      18528299       18528312     
       153  -22953.631     -22953.631      0             -2.4675153      11.53          11.529995      18433684       18433696     
       154  -23275.344     -23275.344      0             -2.5020994      11.54          11.539995      18338064       18338077     
       155  -23595.652     -23595.652      0             -2.5365326      11.55          11.549995      18241495       18241508     
       156  -23914.537     -23914.537      0             -2.5708127      11.56          11.559995      18144027       18144041     
       157  -24231.98      -24231.98       0             -2.6049378      11.57          11.569995      18045711       18045725     
       158  -24547.964     -24547.964      0             -2.6389061      11.58          11.579995      17946595       17946609     
       159  -24862.472     -24862.472      0             -2.6727158      11.59          11.589995      17846725       17846739     
       160  -25175.489     -25175.489      0             -2.7063651      11.6           11.599995      17746145       17746159     
       161  -25486.999     -25486.999      0             -2.7398524      11.61          11.609995      17644897       17644912     
       162  -25796.987     -25796.987      0             -2.7731761      11.62          11.619995      17543022       17543037     
       163  -26105.441     -26105.441      0             -2.8063349      11.63          11.629995      17440558       17440573     
       164  -26412.346     -26412.346      0             -2.8393272      11.64          11.639995      17337543       17337558     
       165  -26717.691     -26717.691      0             -2.8721518      11.65          11.649995      17234011       17234027     
       166  -27021.462     -27021.462      0             -2.9048072      11.66          11.659995      17129997       17130013     
       167  -27323.65      -27323.65       0             -2.9372924      11.67          11.669995      17025532       17025548     
       168  -27624.243     -27624.243      0             -2.9696061      11.68          11.679995      16920647       16920663     
       169  -27923.23      -27923.23       0             -3.0017472      11.69          11.689995      16815370       16815387     
       170  -28220.602     -28220.602      0             -3.0337147      11.7           11.699995      16709731       16709747     
       171  -28516.35      -28516.35       0             -3.0655076      11.71          11.709995      16603754       16603771     
       172  -28810.463     -28810.463      0             -3.0971248      11.72          11.719995      16497465       16497482     
       173  -29102.935     -29102.935      0             -3.1285655      11.73          11.729995      16390889       16390906     
       174  -29393.756     -29393.756      0             -3.1598288      11.74          11.739995      16284047       16284064     
       175  -29682.92      -29682.92       0             -3.1909139      11.75          11.749995      16176961       16176979     
       176  -29970.417     -29970.417      0             -3.2218199      11.76          11.759995      16069653       16069671     
       177  -30256.243     -30256.243      0             -3.2525461      11.77          11.769995      15962141       15962160     
       178  -30540.389     -30540.389      0             -3.2830918      11.78          11.779995      15854446       15854465     
       179  -30822.849     -30822.849      0             -3.3134563      11.79          11.789995      15746586       15746605     
       180  -31103.618     -31103.618      0             -3.3436389      11.8           11.799994      15638578       15638597     
       181  -31382.689     -31382.689      0             -3.373639       11.81          11.809994      15530439       15530459     
       182  -31660.057     -31660.057      0             -3.4034561      11.82          11.819994      15422187       15422207     
       183  -31935.717     -31935.717      0             -3.4330896      11.83          11.829994      15313837       15313857     
       184  -32209.665     -32209.665      0             -3.4625389      11.84          11.839994      15205406       15205426     
       185  -32481.894     -32481.894      0             -3.4918036      11.85          11.849994      15096909       15096929     
       186  -32752.402     -32752.402      0             -3.5208832      11.86          11.859994      14988362       14988383     
       187  -33021.184     -33021.184      0             -3.5497773      11.87          11.869994      14879781       14879802     
       188  -33288.236     -33288.236      0             -3.5784854      11.88          11.879994      14771181       14771202     
       189  -33553.555     -33553.555      0             -3.6070071      11.89          11.889994      14662579       14662601     
       190  -33817.137     -33817.137      0             -3.6353423      11.9           11.899994      14553990       14554012     
       191  -34078.98      -34078.98       0             -3.6634904      11.91          11.909994      14445432       14445455     
       192  -34339.082     -34339.082      0             -3.6914513      11.92          11.919994      14336921       14336944     
       193  -34597.439     -34597.439      0             -3.7192247      11.93          11.929994      14228476       14228499     
       194  -34854.05      -34854.05       0             -3.7468104      11.94          11.939994      14120114       14120138     
       195  -35108.913     -35108.913      0             -3.7742082      11.95          11.949994      14011856       14011880     
       196  -35362.028     -35362.028      0             -3.801418       11.96          11.959994      13903721       13903745     
       197  -35613.393     -35613.393      0             -3.8284397      11.97          11.969994      13795732       13795756     
       198  -35863.007     -35863.007      0             -3.8552733      11.98          11.979994      13687910       13687935     
       199  -36110.871     -36110.871      0             -3.8819187      11.99          11.989994      13580281       13580306     
       200  -36356.986     -36356.986      0             -3.908376       12             11.999994      13472870       13472895     
       201  -36601.352     -36601.352      0             -3.9346453      12.01          12.009994      13365705       13365731     
       202  -36843.971     -36843.971      0             -3.9607268      12.02          12.019994      13258815       13258842     
       203  -37084.844     -37084.844      0             -3.9866207      12.03          12.029994      13152233       13152260     
       204  -37323.975     -37323.975      0             -4.0123273      12.04          12.039994      13045993       13046020     
       205  -37561.367     -37561.367      0             -4.0378469      12.05          12.049994      12940131       12940159     
       206  -37797.023     -37797.023      0             -4.06318        12.06          12.059994      12834687       12834715     
       207  -38030.95      -38030.95       0             -4.0883271      12.07          12.069994      12729704       12729732     
       208  -38263.152     -38263.152      0             -4.1132888      12.08          12.079994      12625227       12625256     
       209  -38493.636     -38493.636      0             -4.1380658      12.09          12.089994      12521307       12521336     
       210  -38722.409     -38722.409      0             -4.162659       12.1           12.099994      12417997       12418026     
       211  -38949.48      -38949.48       0             -4.1870691      12.11          12.109994      12315353       12315384     
       212  -39174.859     -39174.859      0             -4.2112974      12.12          12.119994      12213440       12213470     
       213  -39398.557     -39398.557      0             -4.2353449      12.13          12.129994      12112323       12112354     
       214  -39620.586     -39620.586      0             -4.259213       12.14          12.139994      12012075       12012106     
       215  -39840.96      -39840.96       0             -4.2829032      12.15          12.149994      11912773       11912805     
       216  -40059.693     -40059.693      0             -4.306417       12.16          12.159994      11814503       11814535     
       217  -40276.803     -40276.803      0             -4.3297563      12.17          12.169994      11717354       11717387     
       218  -40492.308     -40492.308      0             -4.3529231      12.18          12.179994      11621423       11621457     
       219  -40706.229     -40706.229      0             -4.3759197      12.19          12.189994      11526816       11526850     
       220  -40918.589     -40918.589      0             -4.3987483      12.2           12.199994      11433645       11433680     
       221  -41129.412     -41129.412      0             -4.4214118      12.21          12.209994      11342031       11342066     
       222  -41338.726     -41338.726      0             -4.443913       12.22          12.219994      11252103       11252139     
       223  -41546.559     -41546.559      0             -4.4662551      12.23          12.229994      11164002       11164038     
       224  -41752.946     -41752.946      0             -4.4884417      12.24          12.239994      11077875       11077912     
       225  -41957.921     -41957.921      0             -4.5104766      12.25          12.249994      10993883       10993920     
       226  -42161.524     -42161.524      0             -4.5323638      12.26          12.259994      10912197       10912234     
       227  -42363.795     -42363.795      0             -4.554108       12.27          12.269994      10832997       10833035     
       228  -42564.781     -42564.781      0             -4.575714       12.28          12.279994      10756478       10756516     
       229  -42764.532     -42764.532      0             -4.5971872      12.29          12.289994      10682847       10682886     
       230  -42963.1       -42963.1        0             -4.6185333      12.3           12.299994      10612323       10612362     
       231  -43160.545     -43160.545      0             -4.6397586      12.31          12.309994      10545137       10545176     
       232  -43356.927     -43356.927      0             -4.6608697      12.32          12.319994      10481536       10481576     
       233  -43552.316     -43552.316      0             -4.681874       12.33          12.329994      10421779       10421819     
       234  -43746.783     -43746.783      0             -4.7027792      12.34          12.339994      10366139       10366179     
       235  -43940.406     -43940.406      0             -4.7235937      12.35          12.349994      10314902       10314943     
       236  -44133.27      -44133.27       0             -4.7443265      12.36          12.359994      10268369       10268410     
       237  -44325.463     -44325.463      0             -4.7649873      12.37          12.369994      10226852       10226893     
       238  -44517.082     -44517.082      0             -4.7855863      12.38          12.379994      10190675       10190716     
       239  -44708.229     -44708.229      0             -4.8061346      12.39          12.389994      10160174       10160216     
       240  -44899.012     -44899.012      0             -4.8266438      12.4           12.399994      10135695       10135737     
       241  -45089.548     -45089.548      0             -4.8471264      12.41          12.409994      10117591       10117633     
       242  -45279.96      -45279.96       0             -4.8675957      12.42          12.419994      10106221       10106264     
       243  -45470.377     -45470.377      0             -4.8880655      12.43          12.429994      10101950       10101992     
       244  -45660.936     -45660.936      0             -4.9085506      12.44          12.439994      10105140       10105182     
       245  -45851.782     -45851.782      0             -4.9290666      12.45          12.449994      10116152       10116194     
       246  -46043.066     -46043.066      0             -4.9496296      12.46          12.459994      10135339       10135381     
       247  -46234.946     -46234.946      0             -4.9702567      12.47          12.469994      10163043       10163086     
       248  -46427.587     -46427.587      0             -4.9909656      12.48          12.479994      10199589       10199631     
       249  -46621.161     -46621.161      0             -5.0117748      12.49          12.489994      10245277       10245319     
       250  -46815.844     -46815.844      0             -5.0327033      12.5           12.499994      10300379       10300421     
       251  -47011.82      -47011.82       0             -5.0537706      12.51          12.509994      10365129       10365170     
       252  -47209.274     -47209.274      0             -5.074997       12.52          12.519994      10439716       10439757     
       253  -47408.398     -47408.398      0             -5.0964027      12.53          12.529994      10524275       10524316     
       254  -47609.383     -47609.383      0             -5.1180087      12.54          12.539994      10618880       10618921     
       255  -47812.425     -47812.425      0             -5.1398357      12.55          12.549994      10723532       10723573     
       256  -48017.716     -48017.716      0             -5.1619045      12.56          12.559994      10838151       10838191     
       257  -48225.449     -48225.449      0             -5.1842358      12.57          12.569994      10962566       10962606     
       258  -48435.812     -48435.812      0             -5.2068498      12.58          12.579994      11096505       11096545     
       259  -48648.987     -48648.987      0             -5.2297661      12.59          12.589994      11239588       11239627     
       260  -48865.148     -48865.148      0             -5.2530034      12.6           12.599994      11391316       11391355     
       261  -49084.459     -49084.459      0             -5.2765793      12.61          12.609994      11551066       11551105     
       262  -49307.071     -49307.071      0             -5.3005101      12.62          12.619994      11718083       11718122     
       263  -49533.121     -49533.121      0             -5.3248105      12.63          12.629994      11891478       11891517     
       264  -49762.726     -49762.726      0             -5.349493       12.64          12.639994      12070223       12070263     
       265  -49995.983     -49995.983      0             -5.3745681      12.65          12.649994      12253156       12253195     
       266  -50232.965     -50232.965      0             -5.4000437      12.66          12.659994      12438977       12439017     
       267  -50473.721     -50473.721      0             -5.425925       12.67          12.669994      12626263       12626303     
       268  -50718.269     -50718.269      0             -5.4522139      12.68          12.679994      12813468       12813509     
       269  -50966.598     -50966.598      0             -5.4789093      12.69          12.689994      12998944       12998986     
       270  -51218.664     -51218.664      0             -5.5060064      12.7           12.699994      13180954       13180997     
       271  -51474.387     -51474.387      0             -5.5334966      12.71          12.709994      13357692       13357737     
       272  -51733.655     -51733.655      0             -5.5613679      12.72          12.719994      13527307       13527353     
       273  -51996.317     -51996.317      0             -5.589604       12.73          12.729994      13687930       13687978     
       274  -52262.185     -52262.185      0             -5.6181849      12.74          12.739994      13837704       13837753     
       275  -52531.038     -52531.038      0             -5.6470866      12.75          12.749994      13974811       13974862     
       276  -52802.618     -52802.618      0             -5.6762814      12.76          12.759994      14097511       14097564     
       277  -53076.633     -53076.633      0             -5.7057381      12.77          12.769994      14204172       14204227     
       278  -53352.763     -53352.763      0             -5.735422       12.78          12.779994      14293301       14293358     
       279  -53630.655     -53630.655      0             -5.7652954      12.79          12.789994      14363578       14363638     
       280  -53909.937     -53909.937      0             -5.7953182      12.8           12.799994      14413885       14413947     
       281  -54190.212     -54190.212      0             -5.8254478      12.81          12.809994      14443330       14443395     
       282  -54471.071     -54471.071      0             -5.8556401      12.82          12.819994      14451270       14451337     
       283  -54752.09      -54752.09       0             -5.8858497      12.83          12.829994      14437326       14437396     
       284  -55032.843     -55032.843      0             -5.9160306      12.84          12.839994      14401397       14401469     
       285  -55312.901     -55312.901      0             -5.9461369      12.85          12.849994      14343661       14343735     
       286  -55591.843     -55591.843      0             -5.9761231      12.86          12.859994      14264573       14264649     
       287  -55869.255     -55869.255      0             -6.0059449      12.87          12.869994      14164862       14164940     
       288  -56144.742     -56144.742      0             -6.0355597      12.88          12.879994      14045511       14045591     
       289  -56417.928     -56417.928      0             -6.0649272      12.89          12.889994      13907740       13907821     
       290  -56688.462     -56688.462      0             -6.0940097      12.9           12.899994      13752977       13753059     
       291  -56956.024     -56956.024      0             -6.1227726      12.91          12.909994      13582832       13582915     
       292  -57220.323     -57220.323      0             -6.1511847      12.92          12.919994      13399062       13399145     
       293  -57481.106     -57481.106      0             -6.1792188      12.93          12.929994      13203535       13203618     
       294  -57738.154     -57738.154      0             -6.2068516      12.94          12.939994      12998190       12998273     
       295  -57991.289     -57991.289      0             -6.2340636      12.95          12.949994      12785005       12785087     
       296  -58240.369     -58240.369      0             -6.2608397      12.96          12.959994      12565954       12566035     
       297  -58485.293     -58485.293      0             -6.287169       12.97          12.969994      12342975       12343054     
       298  -58725.993     -58725.993      0             -6.3130442      12.98          12.979994      12117937       12118015     
       299  -58962.441     -58962.441      0             -6.3384624      12.99          12.989994      11892612       11892688     
       300  -59194.64      -59194.64       0             -6.3634238      13             12.999994      11668645       11668719     
       301  -59422.626     -59422.626      0             -6.3879323      13.01          13.009994      11447540       11447611     
       302  -59646.461     -59646.461      0             -6.4119946      13.02          13.019994      11230638       11230706     
       303  -59866.235     -59866.235      0             -6.4356203      13.03          13.029994      11019110       11019175     
       304  -60082.057     -60082.057      0             -6.4588211      13.04          13.039994      10813947       10814009     
       305  -60294.054     -60294.054      0             -6.4816108      13.05          13.049994      10615961       10616019     
       306  -60502.369     -60502.369      0             -6.5040047      13.06          13.059994      10425783       10425839     
       307  -60707.157     -60707.157      0             -6.5260194      13.07          13.069994      10243875       10243927     
       308  -60908.579     -60908.579      0             -6.5476722      13.08          13.079994      10070534       10070583     
       309  -61106.8       -61106.8        0             -6.568981       13.09          13.089994      9905905.6      9905951.1    
       310  -61301.989     -61301.989      0             -6.5899639      13.1           13.099994      9749998.9      9750041.2    
       311  -61494.315     -61494.315      0             -6.6106388      13.11          13.109994      9602702        9602741.3    
       312  -61683.94      -61683.94       0             -6.6310236      13.12          13.119994      9463798.5      9463834.9    
       313  -61871.026     -61871.026      0             -6.6511353      13.13          13.129994      9332985        9333018.7    
       314  -62055.726     -62055.726      0             -6.6709906      13.14          13.139994      9209888.5      9209919.6    
       315  -62238.186     -62238.186      0             -6.690605       13.15          13.149994      9094083.2      9094111.9    
       316  -62418.542     -62418.542      0             -6.7099933      13.16          13.159994      8985106.2      8985132.9    
       317  -62596.924     -62596.924      0             -6.7291693      13.17          13.169994      8882473        8882497.6    
       318  -62773.449     -62773.449      0             -6.7481457      13.18          13.179994      8785690        8785712.8    
       319  -62948.227     -62948.227      0             -6.7669344      13.19          13.189994      8694266.7      8694288      
       320  -63121.357     -63121.357      0             -6.7855459      13.2           13.199994      8607725.8      8607745.6    
       321  -63292.93      -63292.93       0             -6.80399        13.21          13.209994      8525610.9      8525629.5    
       322  -63463.028     -63463.028      0             -6.8222755      13.22          13.219994      8447493.1      8447510.6    
       323  -63631.724     -63631.724      0             -6.8404104      13.23          13.229994      8372975.8      8372992.3    
       324  -63799.085     -63799.085      0             -6.8584017      13.24          13.239994      8301697        8301712.8    
       325  -63965.17      -63965.17       0             -6.8762558      13.25          13.249994      8233331.7      8233346.8    
       326  -64130.033     -64130.033      0             -6.8939785      13.26          13.259994      8167591.3      8167605.8    
       327  -64293.722     -64293.722      0             -6.9115751      13.27          13.269994      8104223        8104237      
       328  -64456.28      -64456.28       0             -6.9290501      13.28          13.279994      8043008.2      8043021.8    
       329  -64617.747     -64617.747      0             -6.9464078      13.29          13.289994      7983759.4      7983772.7    
       330  -64778.159     -64778.159      0             -6.9636521      13.3           13.299994      7926318        7926331      
       331  -64937.549     -64937.549      0             -6.9807866      13.31          13.309994      7870550.4      7870563.2    
       332  -65095.949     -65095.949      0             -6.9978146      13.32          13.319994      7816345        7816357.7    
       333  -65253.388     -65253.388      0             -7.0147392      13.33          13.329994      7763608.7      7763621.2    
       334  -65409.892     -65409.892      0             -7.0315634      13.34          13.339994      7712263.8      7712276.2    
       335  -65565.487     -65565.487      0             -7.0482899      13.35          13.349994      7662245.1      7662257.4    
       336  -65720.199     -65720.199      0             -7.0649214      13.36          13.359994      7613496.8      7613509.1    
       337  -65874.051     -65874.051      0             -7.0814605      13.37          13.369994      7565971        7565983.1    
       338  -66027.065     -66027.065      0             -7.0979095      13.38          13.379994      7519624.6      7519636.7    
       339  -66179.265     -66179.265      0             -7.114271       13.39          13.389994      7474418.7      7474430.8    
       340  -66330.672     -66330.672      0             -7.1305472      13.4           13.399994      7430316.7      7430328.7    
       341  -66481.305     -66481.305      0             -7.1467403      13.41          13.409994      7387283        7387295      
       342  -66631.186     -66631.186      0             -7.1628525      13.42          13.419994      7345283        7345295      
       343  -66780.333     -66780.333      0             -7.1788858      13.43          13.429994      7304281.9      7304293.9    
       344  -66928.766     -66928.766      0             -7.1948423      13.44          13.439994      7264244.5      7264256.4    
       345  -67076.502     -67076.502      0             -7.210724       13.45          13.449994      7225134.9      7225146.8    
       346  -67223.559     -67223.559      0             -7.2265326      13.46          13.459994      7186916.7      7186928.6    
       347  -67369.954     -67369.954      0             -7.24227        13.47          13.469994      7149552.6      7149564.6    
       348  -67515.701     -67515.701      0             -7.2579379      13.48          13.479994      7113004.8      7113016.7    
       349  -67660.818     -67660.818      0             -7.2735379      13.49          13.489994      7077234.8      7077246.7    
       350  -67805.317     -67805.317      0             -7.2890716      13.5           13.499994      7042203.7      7042215.6    
       351  -67949.214     -67949.214      0             -7.3045405      13.51          13.509994      7007872.6      7007884.5    
       352  -68092.519     -68092.519      0             -7.3199458      13.52          13.519994      6974202.2      6974214.1    
       353  -68235.247     -68235.247      0             -7.335289       13.53          13.529994      6941153.7      6941165.6    
       354  -68377.407     -68377.407      0             -7.3505713      13.54          13.539994      6908688.5      6908700.4    
       355  -68519.012     -68519.012      0             -7.3657937      13.55          13.549994      6876768.4      6876780.3    
       356  -68660.069     -68660.069      0             -7.3809574      13.56          13.559994      6845356.1      6845368      
       357  -68800.589     -68800.589      0             -7.3960633      13.57          13.569994      6813869.7      6812791.1    
       358  -68940.416     -68940.416      0             -7.4110947      13.58          13.579994      6775978.2      6775990      
       359  -69079.725     -69079.725      0             -7.4260704      13.59          13.589994      6746119.7      6746131.5    
       360  -69218.525     -69218.525      0             -7.4409914      13.6           13.599994      6716619.1      6716630.9    
       361  -69356.821     -69356.821      0             -7.4558582      13.61          13.609994      6687445.6      6687457.4    
       362  -69494.619     -69494.619      0             -7.4706716      13.62          13.619994      6658569.9      6658581.7    
       363  -69631.925     -69631.925      0             -7.485432       13.63          13.629994      6629964.2      6629976.1    
       364  -69768.743     -69768.743      0             -7.5001398      13.64          13.639994      6601602.3      6601614.1    
       365  -69905.076     -69905.076      0             -7.5147957      13.65          13.649994      6573459.5      6573471.4    
       366  -70040.928     -70040.928      0             -7.5293998      13.66          13.659994      6545513.1      6545525      
       367  -70176.302     -70176.302      0             -7.5439525      13.67          13.669994      6517741.7      6517753.6    
       368  -70311.201     -70311.201      0             -7.5584541      13.68          13.679994      6490125.8      6490137.7    
       369  -70445.627     -70445.627      0             -7.5729049      13.69          13.689994      6462647.6      6462659.6    
       370  -70579.581     -70579.581      0             -7.587305       13.7           13.699994      6435291.1      6435303      
       371  -70713.066     -70713.066      0             -7.6016546      13.71          13.709994      6408041.6      6408053.5    
       372  -70846.082     -70846.082      0             -7.6159538      13.72          13.719994      6380886.3      6380898.2    
       373  -70978.63      -70978.63       0             -7.6302028      13.73          13.729994      6353813.9      6353825.8    
       374  -71110.712     -71110.712      0             -7.6444016      13.74          13.739994      6326814.7      6326826.6    
       375  -71242.328     -71242.328      0             -7.6585503      13.75          13.749994      6299880.3      6299892.2    
       376  -71373.478     -71373.478      0             -7.6726489      13.76          13.759994      6273003.8      6273015.7    
       377  -71504.163     -71504.163      0             -7.6866975      13.77          13.769994      6246179.6      6246191.6    
       378  -71634.383     -71634.383      0             -7.7006962      13.78          13.779994      6219403.4      6219415.4    
       379  -71764.138     -71764.138      0             -7.7146448      13.79          13.789994      6192672.1      6192684      
       380  -71893.428     -71893.428      0             -7.7285435      13.8           13.799994      6165983.5      6165995.5    
       381  -72022.253     -72022.253      0             -7.7423922      13.81          13.809994      6139336.8      6139348.7    
       382  -72150.614     -72150.614      0             -7.756191       13.82          13.819994      6112731.7      6112743.7    
       383  -72278.51      -72278.51       0             -7.7699399      13.83          13.829994      6086169.2      6086181.1    
       384  -72405.942     -72405.942      0             -7.7836388      13.84          13.839994      6059650.7      6059662.7    
       385  -72532.91      -72532.91       0             -7.7972878      13.85          13.849994      6033178.7      6033190.6    
       386  -72659.413     -72659.413      0             -7.8108869      13.86          13.859994      6006756        6006767.9    
       387  -72785.452     -72785.452      0             -7.8244361      13.87          13.869994      5980386.2      5980398.1    
       388  -72911.028     -72911.028      0             -7.8379355      13.88          13.879994      5954073.3      5954085.3    
       389  -73036.141     -73036.141      0             -7.8513852      13.89          13.889994      5927821.9      5927833.8    
       390  -73160.792     -73160.792      0             -7.8647851      13.9           13.899994      5901636.7      5901648.6    
       391  -73284.98      -73284.98       0             -7.8781354      13.91          13.909994      5875523        5875534.9    
       392  -73408.707     -73408.707      0             -7.8914361      13.92          13.919994      5849486.1      5849498      
       393  -73531.975     -73531.975      0             -7.9046873      13.93          13.929994      5823531.7      5823543.6    
       394  -73654.783     -73654.783      0             -7.9178892      13.94          13.939994      5797665.6      5797677.5    
       395  -73777.133     -73777.133      0             -7.9310418      13.95          13.949993      5771893.7      5771905.6    
       396  -73899.026     -73899.026      0             -7.9441453      13.96          13.959993      5746222.1      5746233.9    
       397  -74020.464     -74020.464      0             -7.9571999      13.97          13.969993      5720656.6      5720668.4    
       398  -74141.448     -74141.448      0             -7.9702057      13.98          13.979993      5695203.4      5695215.2    
       399  -74261.98      -74261.98       0             -7.9831629      13.99          13.989993      5669868.4      5669880.2    
       400  -74382.062     -74382.062      0             -7.9960717      14             13.999993      5644657.6      5644669.3    
       401  -74501.695     -74501.695      0             -8.0089322      14.01          14.009993      5619576.6      5619588.4    
       402  -74620.882     -74620.882      0             -8.0217448      14.02          14.019993      5594631.4      5594643.2    
       403  -74739.625     -74739.625      0             -8.0345097      14.03          14.029993      5569827.4      5569839.1    
       404  -74857.926     -74857.926      0             -8.047227       14.04          14.039993      5545170        5545181.7    
       405  -74975.788     -74975.788      0             -8.0598972      14.05          14.049993      5520664.5      5520676.2    
       406  -75093.212     -75093.212      0             -8.0725203      14.06          14.059993      5496316        5496327.7    
       407  -75210.203     -75210.203      0             -8.0850968      14.07          14.069993      5472129.3      5472141      
       408  -75326.762     -75326.762      0             -8.0976269      14.08          14.079993      5448109.2      5448120.8    
       409  -75442.892     -75442.892      0             -8.1101109      14.09          14.089993      5424260.1      5424271.7    
       410  -75558.597     -75558.597      0             -8.1225492      14.1           14.099993      5400586.4      5400598      
       411  -75673.88      -75673.88       0             -8.1349421      14.11          14.109993      5377092.2      5377103.8    
       412  -75788.743     -75788.743      0             -8.1472898      14.12          14.119993      5353781.7      5353793.3    
       413  -75903.19      -75903.19       0             -8.1595929      14.13          14.129993      5330658.9      5330670.4    
       414  -76017.224     -76017.224      0             -8.1718516      14.14          14.139993      5307727.7      5307739.2    
       415  -76130.849     -76130.849      0             -8.1840663      14.15          14.149993      5284992.4      5285003.9    
       416  -76244.068     -76244.068      0             -8.1962374      14.16          14.159993      5262457.5      5262469      
       417  -76356.886     -76356.886      0             -8.2083652      14.17          14.169993      5240128.3      5240139.7    
       418  -76469.305     -76469.305      0             -8.2204503      14.18          14.179993      5218011        5218022.4    
       419  -76581.33      -76581.33       0             -8.232493       14.19          14.189993      5196113.8      5196125.2    
       420  -76692.965     -76692.965      0             -8.2444937      14.2           14.199993      5174447.3      5174458.7    
       421  -76804.214     -76804.214      0             -8.256453       14.21          14.209993      5153026.4      5153037.8    
       422  -76915.083     -76915.083      0             -8.2683714      14.22          14.219993      5131871.9      5131883.3    
       423  -77025.576     -77025.576      0             -8.2802494      14.23          14.229993      5111013.5      5111024.8    
       424  -77135.7       -77135.7        0             -8.2920878      14.24          14.239993      5090493.9      5090505.2    
       425  -77245.462     -77245.462      0             -8.3038872      14.25          14.249993      5070374.6      5070385.9    
       426  -77354.872     -77354.872      0             -8.3156487      14.26          14.259993      5050744.1      5050755.4    
       427  -77463.939     -77463.939      0             -8.3273735      14.27          14.269993      5031729.1      5031740.4    
       428  -77572.68      -77572.68       0             -8.3390631      14.28          14.279993      5013510.3      5013521.6    
       429  -77681.113     -77681.113      0             -8.3507197      14.29          14.289993      4996343.1      4996354.3    
       430  -77789.264     -77789.264      0             -8.3623459      14.3           14.299993      4980584.9      4980596.1    
       431  -77897.169     -77897.169      0             -8.3739456      14.31          14.309993      4966729.7      4966740.9    
       432  -78004.874     -78004.874      0             -8.385524       14.32          14.319993      4955449.2      4955460.3    
       433  -78112.446     -78112.446      0             -8.3970879      14.33          14.329993      4947635.8      4947646.9    
       434  -78219.97      -78219.97       0             -8.4086468      14.34          14.339993      4944439.5      4944450.6    
       435  -78327.563     -78327.563      0             -8.420213       14.35          14.349993      4947274.2      4947285.3    
       436  -78435.373     -78435.373      0             -8.4318026      14.36          14.359993      4957748.1      4957759.1    
       437  -78543.583     -78543.583      0             -8.4434352      14.37          14.369993      4977430.7      4977441.7    
       438  -78652.409     -78652.409      0             -8.4551339      14.38          14.379993      5007298        5007309      
       439  -78762.068     -78762.068      0             -8.4669223      14.39          14.389993      5046585.3      5046596.3    
       440  -78872.727     -78872.727      0             -8.4788182      14.4           14.399993      5090627        5090637.9    
       441  -78984.375     -78984.375      0             -8.4908203      14.41          14.409993      5127134.1      5127145      
       442  -79096.599     -79096.599      0             -8.5028844      14.42          14.419993      5130463.6      5130474.5    
       443  -79208.212     -79208.212      0             -8.5148828      14.43          14.429993      5054329.3      5054340.1    
       444  -79316.727     -79316.727      0             -8.5265481      14.44          14.439993      4826085.4      4826096.3    
       445  -79417.793     -79417.793      0             -8.5374128      14.45          14.449993      4350852.5      4350863.5    
       446  -79504.948     -79504.948      0             -8.5467819      14.46          14.459993      3538604.1      3538615.3    
       447  -79570.291     -79570.291      0             -8.5538062      14.47          14.469993      2361052        2361063.6    
       448  -79606.564     -79606.564      0             -8.5577056      14.48          14.479993      914619.46      914631.6     
       449  -79610.142     -79610.142      0             -8.5580902      14.49          14.489993     -572037.02     -572024.21    
       450  -79583.122     -79583.122      0             -8.5551856      14.5           14.499993     -1828044.9     -1828031.5    
       451  -79532.78      -79532.78       0             -8.5497738      14.51          14.509993     -2673476.3     -2673462.4    
       452  -79468.66      -79468.66       0             -8.542881       14.52          14.519993     -3084982.3     -3084968.2    
       453  -79399.402     -79399.402      0             -8.5354357      14.53          14.529993     -3157244.3     -3157230.1    
       454  -79331.029     -79331.029      0             -8.5280856      14.54          14.539993     -3021669.4     -3021655.3    
       455  -79266.841     -79266.841      0             -8.5211854      14.55          14.549993     -2788773.8     -2788759.9    
       456  -79208.132     -79208.132      0             -8.5148742      14.56          14.559993     -2530013.6     -2529999.9    
       457  -79155.013     -79155.013      0             -8.5091639      14.57          14.569993     -2283215.4     -2283202      
       458  -79107.018     -79107.018      0             -8.5040044      14.58          14.579993     -2064514.2     -2064501      
       459  -79063.469     -79063.469      0             -8.4993229      14.59          14.589993     -1878484.4     -1878471.4    
       460  -79023.649     -79023.649      0             -8.4950423      14.6           14.599993     -1724586.1     -1724573.3    
       461  -78986.875     -78986.875      0             -8.491089       14.61          14.609993     -1600595       -1600582.4    
       462  -78952.514     -78952.514      0             -8.4873953      14.62          14.619993     -1504136.5     -1504124      
       463  -78919.984     -78919.984      0             -8.4838982      14.63          14.629993     -1433196.4     -1433184.1    
       464  -78888.737     -78888.737      0             -8.4805393      14.64          14.639993     -1386156.4     -1386144.3    
       465  -78858.262     -78858.262      0             -8.4772632      14.65          14.649993     -1361653.1     -1361641.1    
       466  -78828.072     -78828.072      0             -8.4740177      14.66          14.659993     -1358410.8     -1358398.8    
       467  -78797.708     -78797.708      0             -8.4707537      14.67          14.669993     -1375110.7     -1375098.8    
       468  -78766.744     -78766.744      0             -8.467425       14.68          14.679993     -1410316       -1410304.1    
       469  -78734.783     -78734.783      0             -8.4639892      14.69          14.689993     -1462446       -1462434.2    
       470  -78701.466     -78701.466      0             -8.4604076      14.7           14.699993     -1529789.4     -1529777.6    
       471  -78666.471     -78666.471      0             -8.4566456      14.71          14.709993     -1610538.4     -1610526.6    
       472  -78629.518     -78629.518      0             -8.4526731      14.72          14.719993     -1702831       -1702819.2    
       473  -78590.367     -78590.367      0             -8.4484644      14.73          14.729993     -1804787.9     -1804776.1    
       474  -78548.821     -78548.821      0             -8.4439982      14.74          14.739993     -1914534.4     -1914522.5    
       475  -78504.722     -78504.722      0             -8.4392576      14.75          14.749993     -2030197.5     -2030185.6    
       476  -78457.957     -78457.957      0             -8.4342304      14.76          14.759993     -2149869.2     -2149857.4    
       477  -78408.454     -78408.454      0             -8.4289088      14.77          14.769993     -2271527.1     -2271515.2    
       478  -78356.19      -78356.19       0             -8.4232905      14.78          14.779993     -2392905       -2392893.1    
       479  -78301.197     -78301.197      0             -8.4173787      14.79          14.789993     -2511317.2     -2511305.3    
       480  -78243.573     -78243.573      0             -8.4111841      14.8           14.799993     -2623464       -2623452.1    
       481  -78183.5       -78183.5        0             -8.4047262      14.81          14.809993     -2725297.3     -2725285.3    
       482  -78121.257     -78121.257      0             -8.3980351      14.82          14.819993     -2812108.7     -2812096.8    
       483  -78057.235     -78057.235      0             -8.3911528      14.83          14.829993     -2879091.4     -2879079.5    
       484  -77991.922     -77991.922      0             -8.3841316      14.84          14.839993     -2922640.3     -2922628.5    
       485  -77925.856     -77925.856      0             -8.3770295      14.85          14.849993     -2942439.2     -2942427.5    
       486  -77859.523     -77859.523      0             -8.3698988      14.86          14.859993     -2943813.3     -2943801.7    
       487  -77793.214     -77793.214      0             -8.3627705      14.87          14.869993     -2939059.1     -2939047.8    
       488  -77726.87      -77726.87       0             -8.3556385      14.88          14.879993     -2946174.9     -2946163.8    
       489  -77660.003     -77660.003      0             -8.3484503      14.89          14.889993     -2984385.5     -2984374.7    
       490  -77591.735     -77591.735      0             -8.3411115      14.9           14.899993     -3067966.4     -3067955.8    
       491  -77520.965     -77520.965      0             -8.3335037      14.91          14.909993     -3201477.9     -3201467.6    
       492  -77446.611     -77446.611      0             -8.3255107      14.92          14.919993     -3378923.1     -3378913.1    
       493  -77367.816     -77367.816      0             -8.3170402      14.93          14.929993     -3586861.8     -3586851.9    
       494  -77284.064     -77284.064      0             -8.3080368      14.94          14.939993     -3809319.6     -3809309.9    
       495  -77195.187     -77195.187      0             -8.2984826      14.95          14.949993     -4032024.3     -4032014.7    
       496  -77101.298     -77101.298      0             -8.2883895      14.96          14.959993     -4244683.4     -4244673.9    
       497  -77002.694     -77002.694      0             -8.2777896      14.97          14.969993     -4441372.3     -4441362.8    
       498  -76899.763     -76899.763      0             -8.2667245      14.98          14.979993     -4619774.3     -4619765      
       499  -76792.917     -76792.917      0             -8.2552386      14.99          14.989993     -4780031.3     -4780022      
       500  -76682.548     -76682.548      0             -8.2433739      15             14.999993     -4923679.2     -4923669.9    
       501  -76569.005     -76569.005      0             -8.231168       15.01          15.009993     -5052859.9     -5052850.7    
       502  -76452.588     -76452.588      0             -8.2186532      15.02          15.019993     -5169822.2     -5169812.9    
       503  -76333.547     -76333.547      0             -8.2058563      15.03          15.029993     -5276649.5     -5276640.3    
       504  -76212.09      -76212.09       0             -8.1927997      15.04          15.039993     -5375141.8     -5375132.6    
       505  -76088.385     -76088.385      0             -8.1795014      15.05          15.049993     -5466786.2     -5466776.9    
       506  -75962.572     -75962.572      0             -8.1659765      15.06          15.059993     -5552775.4     -5552766.2    
       507  -75834.767     -75834.767      0             -8.1522374      15.07          15.069993     -5634046.9     -5634037.7    
       508  -75705.065     -75705.065      0             -8.1382945      15.08          15.079993     -5711326.1     -5711316.9    
       509  -75573.55      -75573.55       0             -8.1241566      15.09          15.089993     -5785167.7     -5785158.5    
       510  -75440.292     -75440.292      0             -8.1098314      15.1           15.099993     -5855991.8     -5855982.6    
       511  -75305.355     -75305.355      0             -8.0953257      15.11          15.109993     -5924112.8     -5924103.6    
       512  -75168.796     -75168.796      0             -8.0806456      15.12          15.119993     -5989763       -5989753.8    
       513  -75030.667     -75030.667      0             -8.0657968      15.13          15.129993     -6053110.2     -6053101      
       514  -74891.019     -74891.019      0             -8.0507845      15.14          15.139993     -6114271.8     -6114262.7    
       515  -74749.897     -74749.897      0             -8.035614       15.15          15.149993     -6173325.2     -6173316.1    
       516  -74607.349     -74607.349      0             -8.0202901      15.16          15.159993     -6230314.8     -6230305.7    
       517  -74463.42      -74463.42       0             -8.0048177      15.17          15.169993     -6285258.2     -6285249.1    
       518  -74318.155     -74318.155      0             -7.9892017      15.18          15.179993     -6338150.2     -6338141      
       519  -74171.6       -74171.6        0             -7.973447       15.19          15.189993     -6388965.1     -6388955.9    
       520  -74023.802     -74023.802      0             -7.9575588      15.2           15.199993     -6437659.4     -6437650.2    
       521  -73874.809     -73874.809      0             -7.941542       15.21          15.209993     -6484172.7     -6484163.6    
       522  -73724.671     -73724.671      0             -7.9254021      15.22          15.219993     -6528429       -6528419.8    
       523  -73573.439     -73573.439      0             -7.9091447      15.23          15.229993     -6570336.7     -6570327.6    
       524  -73421.167     -73421.167      0             -7.8927755      15.24          15.239993     -6609789.7     -6609780.5    
       525  -73267.913     -73267.913      0             -7.8763007      15.25          15.249993     -6646666.9     -6646657.7    
       526  -73113.737     -73113.737      0             -7.8597267      15.26          15.259993     -6680832.8     -6680823.6    
       527  -72958.701     -72958.701      0             -7.8430604      15.27          15.269993     -6712137.4     -6712128.2    
       528  -72802.874     -72802.874      0             -7.8263089      15.28          15.279993     -6740416.5     -6740407.2    
       529  -72646.325     -72646.325      0             -7.80948        15.29          15.289993     -6765491.6     -6765482.1    
       530  -72489.132     -72489.132      0             -7.7925817      15.3           15.299993     -6787170.3     -6787160.8    
       531  -72331.374     -72331.374      0             -7.7756227      15.31          15.309993     -6805246.9     -6805237.3    
       532  -72173.137     -72173.137      0             -7.7586123      15.32          15.319993     -6819502.4     -6819492.7    
       533  -72014.513     -72014.513      0             -7.7415601      15.33          15.329993     -6829705.7     -6829695.9    
       534  -71855.597     -71855.597      0             -7.7244766      15.34          15.339993     -6835613.8     -6835603.9    
       535  -71696.492     -71696.492      0             -7.7073729      15.35          15.349993     -6836973.5     -6836963.5    
       536  -71537.308     -71537.308      0             -7.6902606      15.36          15.359993     -6833522.1     -6833511.9    
       537  -71378.159     -71378.159      0             -7.6731521      15.37          15.369993     -6824989       -6824978.6    
       538  -71219.167     -71219.167      0             -7.6560605      15.38          15.379993     -6811097.4     -6811086.8    
       539  -71060.462     -71060.462      0             -7.6389997      15.39          15.389993     -6791566.2     -6791555.4    
       540  -70902.178     -70902.178      0             -7.6219841      15.4           15.399993     -6766112.3     -6766101.2    
       541  -70744.458     -70744.458      0             -7.6050292      15.41          15.409993     -6734452.6     -6734441.2    
       542  -70587.451     -70587.451      0             -7.588151       15.42          15.419993     -6696307       -6696295.4    
       543  -70431.313     -70431.313      0             -7.5713662      15.43          15.429993     -6651401.5     -6651389.5    
       544  -70276.207     -70276.207      0             -7.5546923      15.44          15.439993     -6599470.7     -6599458.3    
       545  -70122.302     -70122.302      0             -7.5381475      15.45          15.449993     -6540261.8     -6540249      
       546  -69969.773     -69969.773      0             -7.5217506      15.46          15.459993     -6473537.9     -6473524.7    
       547  -69818.8       -69818.8        0             -7.505521       15.47          15.469993     -6399081.8     -6399068.1    
       548  -69669.57      -69669.57       0             -7.4894788      15.48          15.479993     -6316700.2     -6316686      
       549  -69522.273     -69522.273      0             -7.4736443      15.49          15.489993     -6226227.4     -6226212.8    
       550  -69377.103     -69377.103      0             -7.4580386      15.5           15.499993     -6127530.1     -6127514.9    
       551  -69234.258     -69234.258      0             -7.4426827      15.51          15.509993     -6020511.1     -6020495.3    
       552  -69093.938     -69093.938      0             -7.4275983      15.52          15.519993     -5905114       -5905097.6    
       553  -68956.343     -68956.343      0             -7.4128069      15.53          15.529993     -5781327.4     -5781310.4    
       554  -68821.674     -68821.674      0             -7.39833        15.54          15.539993     -5649189.3     -5649171.6    
       555  -68690.132     -68690.132      0             -7.3841892      15.55          15.549993     -5508791       -5508772.6    
       556  -68561.913     -68561.913      0             -7.3704057      15.56          15.559993     -5360281.3     -5360262.1    
       557  -68437.212     -68437.212      0             -7.3570003      15.57          15.569993     -5203869.8     -5203849.9    
       558  -68316.215     -68316.215      0             -7.3439932      15.58          15.579993     -5039831       -5039810.3    
       559  -68199.105     -68199.105      0             -7.3314038      15.59          15.589993     -4868506.9     -4868485.4    
       560  -68086.054     -68086.054      0             -7.3192509      15.6           15.599993     -4690309.6     -4690287.3    
       561  -67977.225     -67977.225      0             -7.3075517      15.61          15.609993     -4505723.8     -4505700.6    
       562  -67872.767     -67872.767      0             -7.2963225      15.62          15.619993     -4315308.3     -4315284.2    
       563  -67772.818     -67772.818      0             -7.2855779      15.63          15.629993     -4119697.3     -4119672.3    
       564  -67677.497     -67677.497      0             -7.275331       15.64          15.639993     -3919601.8     -3919576      
       565  -67586.909     -67586.909      0             -7.2655927      15.65          15.649993     -3715812.6     -3715785.9    
       566  -67501.137     -67501.137      0             -7.2563722      15.66          15.659993     -3509218.8     -3509191.3    
       567  -67420.496     -67420.496      0             -7.2477033      15.67          15.669993     -3251550.2     -3251521.2    
       568  -67345.66      -67345.66       0             -7.2396585      15.68          15.679993     -3044449.7     -3044419.9    
       569  -67275.704     -67275.704      0             -7.2321382      15.69          15.689993     -2837446.3     -2837415.7    
       570  -67210.619     -67210.619      0             -7.2251415      15.7           15.699993     -2631644.6     -2631613.2    
       571  -67150.368     -67150.368      0             -7.2186646      15.71          15.709993     -2428199.5     -2428167.4    
       572  -67094.888     -67094.888      0             -7.2127004      15.72          15.719993     -2228308.4     -2228275.6    
       573  -67044.085     -67044.085      0             -7.2072391      15.73          15.729993     -2033202.9     -2033169.5    
       574  -66997.835     -66997.835      0             -7.2022673      15.74          15.739993     -1844139       -1844105      
       575  -66955.987     -66955.987      0             -7.1977686      15.75          15.749993     -1662386.8     -1662352.3    
       576  -66918.354     -66918.354      0             -7.1937231      15.76          15.759993     -1489218.5     -1489183.5    
       577  -66884.723     -66884.723      0             -7.1901077      15.77          15.769993     -1325896.7     -1325861.3    
       578  -66854.847     -66854.847      0             -7.1868961      15.78          15.779993     -1173660.8     -1173625.1    
       579  -66828.452     -66828.452      0             -7.1840586      15.79          15.789993     -1033713.5     -1033677.6    
       580  -66805.234     -66805.234      0             -7.1815626      15.8           15.799993     -907206.95     -907170.9     
[...]
      1858  -607.38414     -607.38414      0             -0.065293795    28.58          28.579987      35792.038      35792.086    
      1859  -608.93268     -608.93268      0             -0.065460263    28.59          28.589987      35669.848      35669.896    
      1860  -610.47647     -610.47647      0             -0.065626221    28.6           28.599987      35548.038      35548.086    
      1861  -612.01553     -612.01553      0             -0.065791669    28.61          28.609987      35426.608      35426.656    
      1862  -613.54986     -613.54986      0             -0.06595661     28.62          28.619987      35305.556      35305.604    
      1863  -615.07949     -615.07949      0             -0.066121045    28.63          28.629987      35184.882      35184.93     
      1864  -616.60441     -616.60441      0             -0.066284974    28.64          28.639987      35064.584      35064.632    
      1865  -618.12466     -618.12466      0             -0.066448401    28.65          28.649987      34944.661      34944.708    
      1866  -619.64023     -619.64023      0             -0.066611325    28.66          28.659987      34825.112      34825.159    
      1867  -621.15114     -621.15114      0             -0.066773748    28.67          28.669987      34705.935      34705.982    
      1868  -622.65741     -622.65741      0             -0.066935672    28.68          28.679987      34587.13       34587.177    
      1869  -624.15905     -624.15905      0             -0.067097097    28.69          28.689987      34468.696      34468.743    
      1870  -625.65606     -625.65606      0             -0.067258026    28.7           28.699987      34350.631      34350.678    
      1871  -627.14846     -627.14846      0             -0.06741846     28.71          28.709987      34232.934      34232.981    
      1872  -628.63627     -628.63627      0             -0.067578399    28.72          28.719987      34115.604      34115.651    
      1873  -630.11949     -630.11949      0             -0.067737845    28.73          28.729987      33998.64       33998.687    
      1874  -631.59815     -631.59815      0             -0.067896801    28.74          28.739987      33882.042      33882.088    
      1875  -633.07224     -633.07224      0             -0.068055266    28.75          28.749987      33765.806      33765.853    
      1876  -634.54178     -634.54178      0             -0.068213242    28.76          28.759987      33649.934      33649.98     
      1877  -636.0068      -636.0068       0             -0.06837073     28.77          28.769987      33534.423      33534.469    
      1878  -637.46728     -637.46728      0             -0.068527733    28.78          28.779987      33419.272      33419.318    
      1879  -638.92326     -638.92326      0             -0.068684251    28.79          28.789987      33304.481      33304.527    
      1880  -640.37474     -640.37474      0             -0.068840285    28.8           28.799987      33190.048      33190.094    
      1881  -641.82174     -641.82174      0             -0.068995837    28.81          28.809987      33075.973      33076.018    
      1882  -643.26426     -643.26426      0             -0.069150908    28.82          28.819987      32962.253      32962.299    
      1883  -644.70232     -644.70232      0             -0.069305499    28.83          28.829987      32848.889      32848.934    
      1884  -646.13593     -646.13593      0             -0.069459612    28.84          28.839987      32735.878      32735.923    
      1885  -647.5651      -647.5651       0             -0.069613248    28.85          28.849987      32623.22       32623.265    
      1886  -648.98985     -648.98985      0             -0.069766409    28.86          28.859987      32510.914      32510.959    
      1887  -650.41018     -650.41018      0             -0.069919095    28.87          28.869987      32398.959      32399.004    
      1888  -651.82611     -651.82611      0             -0.070071307    28.88          28.879987      32287.353      32287.398    
      1889  -653.23766     -653.23766      0             -0.070223048    28.89          28.889987      32176.096      32176.141    
      1890  -654.64482     -654.64482      0             -0.070374318    28.9           28.899987      32065.186      32065.231    
      1891  -656.04762     -656.04762      0             -0.070525119    28.91          28.909987      31954.623      31954.668    
      1892  -657.44606     -657.44606      0             -0.070675451    28.92          28.919987      31844.405      31844.45     
      1893  -658.84016     -658.84016      0             -0.070825317    28.93          28.929987      31734.532      31734.576    
      1894  -660.22993     -660.22993      0             -0.070974718    28.94          28.939987      31625.002      31625.046    
      1895  -661.61538     -661.61538      0             -0.071123654    28.95          28.949987      31515.814      31515.858    
      1896  -662.99653     -662.99653      0             -0.071272127    28.96          28.959986      31406.967      31407.012    
      1897  -664.37337     -664.37337      0             -0.071420138    28.97          28.969986      31298.461      31298.505    
      1898  -665.74594     -665.74594      0             -0.071567688    28.98          28.979986      31190.294      31190.338    
      1899  -667.11423     -667.11423      0             -0.07171478     28.99          28.989986      31082.465      31082.509    
      1900  -668.47826     -668.47826      0             -0.071861413    29             28.999986      30974.973      30975.017    
      1901  -669.83804     -669.83804      0             -0.07200759     29.01          29.009986      30867.817      30867.861    
      1902  -671.19359     -671.19359      0             -0.072153311    29.02          29.019986      30760.996      30761.04     
      1903  -672.5449      -672.5449       0             -0.072298577    29.03          29.029986      30654.509      30654.553    
      1904  -673.89201     -673.89201      0             -0.072443391    29.04          29.039986      30548.355      30548.399    
      1905  -675.23491     -675.23491      0             -0.072587752    29.05          29.049986      30442.534      30442.577    
      1906  -676.57361     -676.57361      0             -0.072731663    29.06          29.059986      30337.043      30337.086    
      1907  -677.90814     -677.90814      0             -0.072875125    29.07          29.069986      30231.882      30231.925    
      1908  -679.2385      -679.2385       0             -0.073018138    29.08          29.079986      30127.05       30127.093    
      1909  -680.56469     -680.56469      0             -0.073160705    29.09          29.089986      30022.547      30022.589    
      1910  -681.88675     -681.88675      0             -0.073302825    29.1           29.099986      29918.37       29918.412    
      1911  -683.20466     -683.20466      0             -0.073444501    29.11          29.109986      29814.519      29814.562    
      1912  -684.51845     -684.51845      0             -0.073585734    29.12          29.119986      29710.993      29711.036    
      1913  -685.82813     -685.82813      0             -0.073726524    29.13          29.129986      29607.791      29607.834    
      1914  -687.13371     -687.13371      0             -0.073866874    29.14          29.139986      29504.913      29504.955    
      1915  -688.43519     -688.43519      0             -0.074006783    29.15          29.149986      29402.356      29402.398    
      1916  -689.7326      -689.7326       0             -0.074146255    29.16          29.159986      29300.121      29300.163    
      1917  -691.02594     -691.02594      0             -0.074285288    29.17          29.169986      29198.205      29198.247    
      1918  -692.31522     -692.31522      0             -0.074423886    29.18          29.179986      29096.609      29096.651    
      1919  -693.60045     -693.60045      0             -0.074562048    29.19          29.189986      28995.331      28995.372    
      1920  -694.88165     -694.88165      0             -0.074699777    29.2           29.199986      28894.37       28894.411    
      1921  -696.15882     -696.15882      0             -0.074837073    29.21          29.209986      28793.725      28793.767    
      1922  -697.43198     -697.43198      0             -0.074973938    29.22          29.219986      28693.396      28693.437    
      1923  -698.70114     -698.70114      0             -0.075110372    29.23          29.229986      28593.38       28593.422    
      1924  -699.9663      -699.9663       0             -0.075246377    29.24          29.239986      28493.679      28493.72     
      1925  -701.22748     -701.22748      0             -0.075381954    29.25          29.249986      28394.289      28394.331    
      1926  -702.48469     -702.48469      0             -0.075517105    29.26          29.259986      28295.212      28295.253    
      1927  -703.73795     -703.73795      0             -0.075651829    29.27          29.269986      28196.444      28196.485    
      1928  -704.98725     -704.98725      0             -0.07578613     29.28          29.279986      28097.986      28098.027    
      1929  -706.23262     -706.23262      0             -0.075920006    29.29          29.289986      27999.837      27999.878    
      1930  -707.47406     -707.47406      0             -0.076053461    29.3           29.299986      27901.996      27902.037    
      1931  -708.71158     -708.71158      0             -0.076186495    29.31          29.309986      27804.461      27804.502    
      1932  -709.94519     -709.94519      0             -0.076319108    29.32          29.319986      27707.232      27707.273    
      1933  -711.17491     -711.17491      0             -0.076451303    29.33          29.329986      27610.309      27610.349    
      1934  -712.40075     -712.40075      0             -0.076583081    29.34          29.339986      27513.689      27513.729    
      1935  -713.62271     -713.62271      0             -0.076714442    29.35          29.349986      27417.372      27417.412    
      1936  -714.84081     -714.84081      0             -0.076845387    29.36          29.359986      27321.357      27321.397    
      1937  -716.05505     -716.05505      0             -0.076975918    29.37          29.369986      27225.644      27225.684    
      1938  -717.26546     -717.26546      0             -0.077106037    29.38          29.379986      27130.23       27130.27     
      1939  -718.47203     -718.47203      0             -0.077235743    29.39          29.389986      27035.117      27035.156    
      1940  -719.67477     -719.67477      0             -0.077365038    29.4           29.399986      26940.301      26940.341    
      1941  -720.87371     -720.87371      0             -0.077493924    29.41          29.409986      26845.783      26845.823    
      1942  -722.06885     -722.06885      0             -0.077622401    29.42          29.419986      26751.562      26751.602    
      1943  -723.26019     -723.26019      0             -0.077750471    29.43          29.429986      26657.637      26657.677    
      1944  -724.44776     -724.44776      0             -0.077878134    29.44          29.439986      26564.007      26564.046    
      1945  -725.63155     -725.63155      0             -0.078005392    29.45          29.449986      26470.67       26470.71     
      1946  -726.81159     -726.81159      0             -0.078132246    29.46          29.459986      26377.627      26377.666    
      1947  -727.98787     -727.98787      0             -0.078258696    29.47          29.469986      26284.876      26284.915    
      1948  -729.16042     -729.16042      0             -0.078384745    29.48          29.479986      26192.416      26192.455    
      1949  -730.32924     -730.32924      0             -0.078510393    29.49          29.489986      26100.247      26100.286    
      1950  -731.49434     -731.49434      0             -0.078635641    29.5           29.499986      26008.367      26008.406    
      1951  -732.65573     -732.65573      0             -0.07876049     29.51          29.509986      25916.776      25916.815    
      1952  -733.81342     -733.81342      0             -0.078884942    29.52          29.519986      25825.472      25825.511    
      1953  -734.96742     -734.96742      0             -0.079008998    29.53          29.529986      25734.456      25734.495    
      1954  -736.11774     -736.11774      0             -0.079132657    29.54          29.539986      25643.726      25643.764    
      1955  -737.2644      -737.2644       0             -0.079255923    29.55          29.549986      25553.281      25553.319    
      1956  -738.4074      -738.4074       0             -0.079378795    29.56          29.559986      25463.12       25463.158    
      1957  -739.54674     -739.54674      0             -0.079501275    29.57          29.569986      25373.242      25373.281    
      1958  -740.68246     -740.68246      0             -0.079623364    29.58          29.579986      25283.647      25283.686    
      1959  -741.81454     -741.81454      0             -0.079745063    29.59          29.589986      25194.334      25194.372    
      1960  -742.943       -742.943        0             -0.079866373    29.6           29.599986      25105.302      25105.34     
      1961  -744.06785     -744.06785      0             -0.079987294    29.61          29.609986      25016.55       25016.588    
      1962  -745.18911     -745.18911      0             -0.080107829    29.62          29.619986      24928.077      24928.115    
      1963  -746.30678     -746.30678      0             -0.080227979    29.63          29.629986      24839.883      24839.92     
      1964  -747.42086     -747.42086      0             -0.080347743    29.64          29.639986      24751.965      24752.003    
      1965  -748.53138     -748.53138      0             -0.080467124    29.65          29.649986      24664.325      24664.362    
      1966  -749.63834     -749.63834      0             -0.080586122    29.66          29.659986      24576.96       24576.998    
      1967  -750.74175     -750.74175      0             -0.080704738    29.67          29.669986      24489.871      24489.908    
      1968  -751.84162     -751.84162      0             -0.080822974    29.68          29.679986      24403.055      24403.092    
      1969  -752.93795     -752.93795      0             -0.08094083     29.69          29.689986      24316.513      24316.55     
      1970  -754.03077     -754.03077      0             -0.081058308    29.7           29.699986      24230.243      24230.28     
      1971  -755.12008     -755.12008      0             -0.081175408    29.71          29.709986      24144.245      24144.282    
      1972  -756.20588     -756.20588      0             -0.081292132    29.72          29.719986      24058.518      24058.555    
      1973  -757.28819     -757.28819      0             -0.081408481    29.73          29.729986      23973.06       23973.097    
      1974  -758.36702     -758.36702      0             -0.081524455    29.74          29.739986      23887.872      23887.909    
      1975  -759.44238     -759.44238      0             -0.081640055    29.75          29.749986      23802.953      23802.989    
      1976  -760.51427     -760.51427      0             -0.081755284    29.76          29.759986      23718.3        23718.337    
      1977  -761.58271     -761.58271      0             -0.081870141    29.77          29.769986      23633.915      23633.952    
      1978  -762.6477      -762.6477       0             -0.081984628    29.78          29.779986      23549.796      23549.832    
      1979  -763.70926     -763.70926      0             -0.082098746    29.79          29.789986      23465.941      23465.978    
      1980  -764.76739     -764.76739      0             -0.082212495    29.8           29.799986      23382.351      23382.387    
      1981  -765.82211     -765.82211      0             -0.082325877    29.81          29.809986      23299.025      23299.061    
      1982  -766.87342     -766.87342      0             -0.082438893    29.82          29.819986      23215.961      23215.997    
      1983  -767.92133     -767.92133      0             -0.082551543    29.83          29.829986      23133.159      23133.195    
      1984  -768.96586     -768.96586      0             -0.08266383     29.84          29.839986      23050.618      23050.654    
      1985  -770.007       -770.007        0             -0.082775753    29.85          29.849986      22968.338      22968.374    
      1986  -771.04478     -771.04478      0             -0.082887314    29.86          29.859986      22886.317      22886.353    
      1987  -772.07919     -772.07919      0             -0.082998513    29.87          29.869986      22804.555      22804.591    
      1988  -773.11026     -773.11026      0             -0.083109353    29.88          29.879986      22723.051      22723.087    
      1989  -774.13798     -774.13798      0             -0.083219833    29.89          29.889986      22641.804      22641.84     
      1990  -775.16237     -775.16237      0             -0.083329955    29.9           29.899986      22560.814      22560.849    
      1991  -776.18343     -776.18343      0             -0.083439719    29.91          29.909986      22480.079      22480.114    
      1992  -777.20118     -777.20118      0             -0.083549127    29.92          29.919986      22399.599      22399.634    
      1993  -778.21563     -778.21563      0             -0.08365818     29.93          29.929986      22319.373      22319.409    
      1994  -779.22678     -779.22678      0             -0.083766879    29.94          29.939986      22239.401      22239.436    
      1995  -780.23464     -780.23464      0             -0.083875224    29.95          29.949986      22159.681      22159.716    
      1996  -781.23922     -781.23922      0             -0.083983217    29.96          29.959986      22080.213      22080.248    
      1997  -782.24054     -782.24054      0             -0.084090858    29.97          29.969986      22000.996      22001.031    
      1998  -783.23859     -783.23859      0             -0.084198148    29.98          29.979986      21922.029      21922.064    
      1999  -784.23339     -784.23339      0             -0.08430509     29.99          29.989986      21843.311      21843.346    
      2000  -785.22495     -785.22495      0             -0.084411682    30             29.999986      21764.843      21764.877    
Loop time of 26.8294 on 64 procs for 2000 steps with 400 atoms

Performance: 6.441 ns/day, 3.726 hours/ns, 74.545 timesteps/s
2723.6% CPU use with 1 MPI tasks x 64 OpenMP threads

MPI task timing breakdown:
Section |  min time  |  avg time  |  max time  |%varavg| %total
---------------------------------------------------------------
Pair    | 26.601     | 26.601     | 26.601     |   0.0 | 99.15
Neigh   | 0.11217    | 0.11217    | 0.11217    |   0.0 |  0.42
Comm    | 0.01027    | 0.01027    | 0.01027    |   0.0 |  0.04
Output  | 0.074724   | 0.074724   | 0.074724   |   0.0 |  0.28
Modify  | 0.012832   | 0.012832   | 0.012832   |   0.0 |  0.05
Other   |            | 0.01841    |            |       |  0.07

Nlocal:            400 ave         400 max         400 min
Histogram: 1 0 0 0 0 0 0 0 0 0
Nghost:            340 ave         340 max         340 min
Histogram: 1 0 0 0 0 0 0 0 0 0
Neighs:           8992 ave        8992 max        8992 min
Histogram: 1 0 0 0 0 0 0 0 0 0

Total # of neighbors = 8992
Ave neighs/atom = 22.48
Neighbor list builds = 68
Dangerous builds = 0

Total wall time: 0:00:26
